/*--------------------------------*- C++ -*----------------------------------*\
  =========                 |
  \\      /  F ield         | OpenFOAM: The Open Source CFD Toolbox
   \\    /   O peration     | Website:  https://openfoam.org
    \\  /    A nd           | Version:  12
     \\/     M anipulation  |
\*---------------------------------------------------------------------------*/
FoamFile
{
    format      ascii;
    class       volScalarField;
    location    "0.016";
    object      nut;
}
// * * * * * * * * * * * * * * * * * * * * * * * * * * * * * * * * * * * * * //

dimensions      [0 2 -1 0 0 0 0];

internalField   nonuniform List<scalar> 
75962
(
4.6423991178092978272e-07
5.6641833710360283812e-07
6.8074137926386925803e-07
7.4648249233615083359e-07
8.0652210849723488458e-07
9.2087279833384718203e-07
1.0558833319205212236e-06
1.1393216322282859189e-06
1.179021896931067378e-06
1.2376963286746700469e-06
1.3459466548112050855e-06
1.4464621393850347347e-06
1.514998036998303684e-06
1.5726639202137269339e-06
1.6519162177103223324e-06
1.7548018868070525447e-06
1.8532874402054612601e-06
1.922205652775582921e-06
1.967324188942135545e-06
2.0228482016731906288e-06
2.1189355472215144024e-06
2.2468518030539350426e-06
2.3647959050496755918e-06
2.4397891040533302437e-06
2.4751247525819652397e-06
2.5060335708393650037e-06
2.5743215402484490178e-06
2.7021299705269193049e-06
2.8071806868445066928e-06
2.8663080288722689062e-06
2.9038743923496642194e-06
2.9543902367724141981e-06
3.032068276303808548e-06
3.1322786518253474387e-06
3.2455291824634619877e-06
3.3611555241326005977e-06
3.4649460458058062796e-06
3.5411732329354508677e-06
3.5855978106336152895e-06
3.6100402852948357312e-06
3.6378940846113977694e-06
3.6968495357652821185e-06
3.8055891155585505107e-06
3.9391433291011357932e-06
4.0591670702941485061e-06
4.1365348610536166043e-06
4.169932523814880435e-06
4.1789223829730460448e-06
4.1848335041827462244e-06
4.200015076181872026e-06
4.2389878491601526038e-06
4.3210985044624686474e-06
4.421851982512030202e-06
4.5248838492792191595e-06
4.612567263154138014e-06
4.6720196160926606591e-06
4.7050468632488567022e-06
4.7342066589636436943e-06
4.7944265864136518041e-06
4.9288362294721837652e-06
5.0890158957294398491e-06
5.2252994504418751596e-06
5.3134613284707016493e-06
5.3538794012807692133e-06
5.3639913509797485885e-06
5.363137618288363296e-06
5.3627143482915346371e-06
5.3679212042964659127e-06
5.3908989235829906845e-06
5.4663673215241018693e-06
5.5644030845123763714e-06
5.6385280682523769135e-06
5.6910975499203444192e-06
5.733004877831148334e-06
5.7805724662482078032e-06
5.8469553528012795308e-06
5.9431626758537545085e-06
6.0734682756459326791e-06
6.2278071023375286953e-06
6.3816576947224618071e-06
6.5058708873134832914e-06
6.5817028104423450067e-06
6.6106019320829004796e-06
6.6112467170893360021e-06
6.6022443315558044437e-06
6.5815027319808737475e-06
6.5698653384852768514e-06
6.5665013617997014913e-06
6.5753667187899915737e-06
6.6172325019075746156e-06
6.6652700915204216814e-06
6.7077897027145354854e-06
6.7556042818102208169e-06
6.8138797821436938745e-06
6.8839504915877846949e-06
6.9642843093838042965e-06
7.051517732939630278e-06
7.1415638446028783211e-06
7.2272752206237378373e-06
7.2996793534322507901e-06
7.3499645789693986912e-06
7.3748104738113011555e-06
7.379478087787620419e-06
7.3749704387281334801e-06
7.3670432582248566983e-06
7.3598924518975731532e-06
7.3577616087609444949e-06
7.3737200507680986989e-06
7.4402388023040774955e-06
7.5125877345521126444e-06
7.5659317857969922029e-06
7.6109648983623412065e-06
7.6577301241860922665e-06
7.7134679028978783856e-06
7.7803091225085980971e-06
7.8559024748630934429e-06
7.9347158739158771452e-06
8.0113227095554977197e-06
8.0808449977818277732e-06
8.1385737092184418751e-06
8.1810519532401719528e-06
8.2057576771766978062e-06
8.2146016601291172267e-06
8.2140051097253069507e-06
8.212397255745243542e-06
8.2162547496011465597e-06
8.2397490212008847859e-06
8.2979830073299107399e-06
8.3560933568516301796e-06
8.4035160488834408278e-06
8.4364360700713879391e-06
8.4545382715625430907e-06
8.4610548564326600989e-06
8.4618087684745151266e-06
8.4631949141007457816e-06
8.4723135720783521039e-06
8.5029626924661183448e-06
8.5876550519106947378e-06
8.6940318488505917731e-06
8.79493592277446587e-06
8.8817862677389681429e-06
8.9487489747075015949e-06
8.9936366273389789305e-06
9.0172554554364505911e-06
9.024672814979184515e-06
9.0238318002453507728e-06
9.0220455298533124916e-06
9.0248742678333268097e-06
9.042558556449945223e-06
9.073167458558698822e-06
9.0983754161498034635e-06
9.1139543497653372557e-06
9.1192635146622972605e-06
9.1172013052175270633e-06
9.1121908301841929892e-06
9.1082847991356939585e-06
9.1086145335804932912e-06
9.1216749773326827994e-06
9.1731943906073521475e-06
9.2731098628642122383e-06
9.3749778184074192766e-06
9.474136668462443655e-06
9.5686680826269691452e-06
9.6562620232137125247e-06
9.7340977352946468111e-06
9.7978210347854971567e-06
9.8444855204566984909e-06
9.8736501923872640617e-06
9.8868423902957887453e-06
9.8883700786284045733e-06
9.8829790672919693481e-06
9.8751669613400928585e-06
9.8621219833578407184e-06
9.831998185940148691e-06
9.787222435761038178e-06
9.7514944160621923444e-06
9.7273110960483804449e-06
9.7132650899580549549e-06
9.7062500483711857123e-06
9.702936002782189861e-06
9.7138198012440625956e-06
9.7725648075025787017e-06
9.9101190926872041872e-06
1.0040221083611308291e-05
1.0152875439856585122e-05
1.0249185558055696202e-05
1.0330811263598197678e-05
1.0399041443724723477e-05
1.0614160508845949012e-05
1.0649798673808406375e-05
1.0753646377158911679e-05
1.0863431415027471997e-05
1.0959617204426859083e-05
1.1040475244971749218e-05
1.1104427014487626587e-05
1.115215255400655961e-05
1.1185367375012125711e-05
1.1206549853935246857e-05
1.1218522574144069477e-05
1.1223789979028299559e-05
1.1223961141831377227e-05
1.122022208265920933e-05
1.1214315532373234427e-05
1.1206774056568380196e-05
1.1198631233473589598e-05
1.1188843988681175672e-05
1.117322557544075205e-05
1.1138160967967913767e-05
1.1060290491589027696e-05
1.0982966017203032522e-05
1.0922971016808925957e-05
1.0883166682160479172e-05
1.0860677601254409316e-05
1.0850515456637850405e-05
1.0844619754392911248e-05
1.0846374428824663675e-05
1.087293475369227651e-05
1.0954727826038379327e-05
1.1040772260279319264e-05
1.1113403842402364726e-05
1.1173421759100205143e-05
1.1221066810068419623e-05
1.1256872651544077806e-05
1.1281874740198291038e-05
1.1296498676621765416e-05
1.1302857126456539253e-05
1.1302764974675963435e-05
1.1298310622889002253e-05
1.1291410130419327168e-05
1.1283481745543528976e-05
1.127427254214252295e-05
1.1260607900539006544e-05
1.1232500839363825852e-05
1.1171011855161050376e-05
1.110644165386454735e-05
1.1053619889047840394e-05
1.1014219385037158332e-05
1.0988091830403091221e-05
1.0972247919938238523e-05
1.0962923133355277438e-05
1.0955912846726757458e-05
1.0952255997996223071e-05
1.0959319337704094858e-05
1.0993038798701916677e-05
1.1037825009892671924e-05
1.1083572328306590834e-05
1.1131170952271501079e-05
1.1180134889498787783e-05
1.1228106882489671752e-05
1.1272518038050758095e-05
1.1309702580512334596e-05
1.1337919385515433758e-05
1.1355863565639479228e-05
1.1364106794934659397e-05
1.1364564363875560176e-05
1.1360214009923482313e-05
1.1353314905203528004e-05
1.1345148172816287195e-05
1.1334720240637640286e-05
1.1315556754958739822e-05
1.1271842050812402939e-05
1.1217963103425504975e-05
1.1172386269396499531e-05
1.1136389555391984108e-05
1.1110315531316351418e-05
1.1092210408217517987e-05
1.1080079563141720148e-05
1.1070677343910500514e-05
1.106270436659373276e-05
1.1055964892070666922e-05
1.105380920819285362e-05
1.1063306412665938562e-05
1.1079708055074299276e-05
1.1099923302295838383e-05
1.1126192459645644245e-05
1.1158954848880837945e-05
1.1197473419906504163e-05
1.1239746322079100427e-05
1.1282592918272040851e-05
1.1322669692265043164e-05
1.135682688377377778e-05
1.1383136896553301744e-05
1.1400494429079015851e-05
1.1409445651295975423e-05
1.1410953816229937961e-05
1.1407083260639994658e-05
1.1400135135743697887e-05
1.1391857863832891175e-05
1.1382670753315461733e-05
1.1370904571506626932e-05
1.1350613123453671342e-05
1.1307256201378550011e-05
1.1256393670873448979e-05
1.1211245307832029073e-05
1.117316364534313068e-05
1.1142244230942608286e-05
1.1118266222110478929e-05
1.1100319581407653275e-05
1.1087085702457016758e-05
1.1076890158813859608e-05
1.1068209189633148183e-05
1.1060607856566353487e-05
1.1054462267292678069e-05
1.1054428991458043458e-05
1.1074444798948906754e-05
1.1136589698289234569e-05
1.1204265923293506844e-05
1.1265242800321907654e-05
1.1317251777137667343e-05
1.1357840858357373895e-05
1.1386578071013002942e-05
1.1403948810716528904e-05
1.1411439423713138307e-05
1.1411443597209280018e-05
1.1406653913588342723e-05
1.1399201673606495588e-05
1.1391046775512658887e-05
1.1381976268444934049e-05
1.1370663300131820029e-05
1.1352851609919594321e-05
1.1314302302354556471e-05
1.1252857344781419798e-05
1.1194351683874836895e-05
1.1142295218489646288e-05
1.1098239640755320145e-05
1.1062802393085048762e-05
1.1035885331592835734e-05
1.1016360208575558637e-05
1.1002675585455409354e-05
1.0993061382841902185e-05
1.0985408879184125919e-05
1.0978612022081692939e-05
1.0974614547602390633e-05
1.0979480332710036264e-05
1.1010380360229360831e-05
1.1058389900486720453e-05
1.1102670717822673118e-05
1.1142281158264433176e-05
1.1176157354804409322e-05
1.1203446590945613165e-05
1.1223786149691820571e-05
1.1237623549364465116e-05
1.1245340853886705854e-05
1.1247914807186172283e-05
1.1246417497484236729e-05
1.1241790598870320927e-05
1.1235111629667349258e-05
1.1227493391614329205e-05
1.1219311356763302467e-05
1.1210164861918858119e-05
1.1199028515872770938e-05
1.1182184838965601162e-05
1.1157361838913075209e-05
1.1131485035027808187e-05
1.1104399320547364558e-05
1.1075807898898967467e-05
1.1045027459409891842e-05
1.101160978766372293e-05
1.0975586886519074145e-05
1.0938317383009629925e-05
1.0901156319006375157e-05
1.0866814609408522116e-05
1.0837106621024427747e-05
1.0814523943865015984e-05
1.0799057340028187052e-05
1.0788995996684223728e-05
1.0781792403553101841e-05
1.0779075862252824678e-05
1.079323391159702793e-05
1.0861745060985888853e-05
1.0984842780348962347e-05
1.1092811001597902246e-05
1.1180402017030277765e-05
1.1247811550608167839e-05
1.1296488128460132326e-05
1.132988866410138148e-05
1.1350767932750233127e-05
1.1362147650119977003e-05
1.1366379212484285696e-05
1.1365182876262524495e-05
1.1360129748158051901e-05
1.1353064863078330963e-05
1.1344899707686826299e-05
1.1334885942363974006e-05
1.1317601383620047074e-05
1.127660615182408061e-05
1.1180199964989124834e-05
1.1072237181179740961e-05
1.097280488268682421e-05
1.0885125857195455674e-05
1.081113698296569827e-05
1.0752787215591966431e-05
1.0709534410119168015e-05
1.0680494004812152465e-05
1.0662922028897787034e-05
1.0652864908171162778e-05
1.0645805551533400485e-05
1.0641946709616714999e-05
1.064921387308132307e-05
1.0692629083638719231e-05
1.0786290986369521176e-05
1.0871773289410364402e-05
1.0942648732806987152e-05
1.0997409298603620667e-05
1.103649643933021878e-05
1.1061552016342170504e-05
1.1075195457760695939e-05
1.1079993420024730888e-05
1.1078692448322950836e-05
1.1073623928464902219e-05
1.1066807226496408134e-05
1.1059252463554219769e-05
1.1051411580803894248e-05
1.1043141384957875226e-05
1.1033537976964995854e-05
1.1020209777136484282e-05
1.0995947388461526647e-05
1.0942783386899347555e-05
1.0874719841538667761e-05
1.0805748151300025435e-05
1.0737561724001815164e-05
1.0671735900111950683e-05
1.0610020101955478601e-05
1.0553893064213389741e-05
1.0505047479751580987e-05
1.0465022149064367253e-05
1.0434245873504934812e-05
1.0412736037853768153e-05
1.0398883366975045553e-05
1.0390230509086435145e-05
1.0383577843157814287e-05
1.0380606476329841794e-05
1.0390187446008198908e-05
1.0440164966494017333e-05
1.0535955541212839036e-05
1.0622028180031507354e-05
1.0693484516099878242e-05
1.0749788226151163446e-05
1.0791740746406547596e-05
1.0821101184473941713e-05
1.0839780309112095069e-05
1.0850093531580236235e-05
5.0499501567842019121e-07
5.9397766465877990002e-07
7.2307272818781205782e-07
8.4099884020980805019e-07
9.0019407726974683565e-07
9.4601334737820693781e-07
1.0510759286829178899e-06
1.2003052221897519619e-06
1.2844094084096215016e-06
1.3385996774515883915e-06
1.4256391592066841052e-06
1.5422553823398458952e-06
1.6399235132440875998e-06
1.6936988941753915031e-06
1.7274355872564709834e-06
1.7893058098819882668e-06
1.9220302851398608504e-06
2.0355187444727575183e-06
2.0915070570860436025e-06
2.1357834610148476265e-06
2.2304652007855752466e-06
2.3713662946729039256e-06
2.4683730589076693315e-06
2.5155355492941846926e-06
2.5680555183555829774e-06
2.6569682638238762314e-06
2.7597864425036419546e-06
2.8421271879158322584e-06
2.9031771458731071628e-06
2.9727923306594067466e-06
3.0706485935383515514e-06
3.178557535126078479e-06
3.2627875882959429303e-06
3.3102803677883762606e-06
3.3452398489068214966e-06
3.4068061489061359424e-06
3.5125072931648875879e-06
3.6434565223696277865e-06
3.7627542618615919538e-06
3.8437768219276891531e-06
3.8840776205639370976e-06
3.9069157659969079468e-06
3.9439317963045153153e-06
4.0141866345493635931e-06
4.1148212978484928509e-06
4.2274224042118843626e-06
4.3295979637378414405e-06
4.405582842602271792e-06
4.4509178648270603625e-06
4.4725076897568402431e-06
4.487309546662190783e-06
4.5155990762895777466e-06
4.5882022301092149525e-06
4.722406625709437195e-06
4.8478560743504042955e-06
4.9335638708492175414e-06
4.9762740855283563017e-06
5.0079735769705744215e-06
5.0670364323975540234e-06
5.167585453359379075e-06
5.2980009080180945745e-06
5.4293283965208404904e-06
5.532993609637759281e-06
5.5965140380393235125e-06
5.6247524506125378164e-06
5.6321037065219445983e-06
5.6330680563239355396e-06
5.6374856654135797277e-06
5.6539706338431536199e-06
5.7095751174063689128e-06
5.7999625184005882829e-06
5.8814754085629390297e-06
5.954900360061021076e-06
6.024128371352858843e-06
6.0956282931452354041e-06
6.1772176959967310298e-06
6.2779316185307277505e-06
6.4020597112417196371e-06
6.5439328389032437927e-06
6.6866710895538184305e-06
6.8058445728388849432e-06
6.8827320051816031534e-06
6.9149653995455157132e-06
6.9176859181920043857e-06
6.9100146150640408648e-06
6.8904142611538551525e-06
6.8754001796946476679e-06
6.8704544546538127338e-06
6.8740962584140827998e-06
6.9089749198566522922e-06
6.9908347832713856686e-06
7.065089228619795834e-06
7.1331720640773697275e-06
7.2009841312917701283e-06
7.273365864606323493e-06
7.3524391173539094488e-06
7.4366564725489730199e-06
7.5222280463100632314e-06
7.6025656990992079314e-06
7.6698330203126235098e-06
7.7168363480121520575e-06
7.7405231746675308267e-06
7.7453162618405495417e-06
7.7409256682634359429e-06
7.7326221450171495102e-06
7.7230941504797289337e-06
7.7181113456078806316e-06
7.7214438606639719293e-06
7.7593597431347120802e-06
7.8516590661272769625e-06
7.9374464928639847246e-06
8.0165677669063004779e-06
8.0934606482049854353e-06
8.1698648059669343077e-06
8.2453340793124942993e-06
8.318436420861787656e-06
8.3871683909576764509e-06
8.450149552435285959e-06
8.505881283090798681e-06
8.551779357703552753e-06
8.5852268686108183641e-06
8.6041731097590993865e-06
8.6099808814540953572e-06
8.6079486347483885665e-06
8.6053833179642684042e-06
8.6079476217088471938e-06
8.629448154140586185e-06
8.6972418887525699703e-06
8.7761285743321286327e-06
8.8451511503939055439e-06
8.8997634662246620822e-06
8.9377674877448855489e-06
8.9592796965795466811e-06
8.9679710693944923868e-06
8.9710090780532888115e-06
8.9769919538272908473e-06
8.9962100343095838961e-06
9.0521591772338335638e-06
9.142398616318692735e-06
9.2382647462381161464e-06
9.329648253797014827e-06
9.4086601490580111512e-06
9.4701418090282050462e-06
9.5116701609010390165e-06
9.5334722769674184437e-06
9.5399917338707199155e-06
9.5375661186691874531e-06
9.5323134887126223676e-06
9.5274326541191696086e-06
9.5257450282257507835e-06
9.5260977583447795357e-06
9.5241522970711510612e-06
9.5228081577699677279e-06
9.5268379883336786189e-06
9.5450304429782224515e-06
9.5896482811366236254e-06
9.6561880906506989401e-06
9.7401574702033637455e-06
9.8330707821138895375e-06
9.9255230919167540266e-06
1.00117276069820125e-05
1.0089110991268343691e-05
1.015858853153861431e-05
1.0219698707375358661e-05
1.027234188734642536e-05
1.0314085624323965969e-05
1.0343140336091286342e-05
1.0359925794820961148e-05
1.0365227616450383195e-05
1.0362917623077966419e-05
1.0356390181339188755e-05
1.0347953328455732487e-05
1.033385422017324007e-05
1.0303371519443201544e-05
1.026792415299077521e-05
1.0241677577002325953e-05
1.0224976268451407819e-05
1.0216243672960771406e-05
1.0211684011438631475e-05
1.0219683422932075018e-05
1.027332331531001527e-05
1.0432867878390316422e-05
1.0597492504023647982e-05
1.0727428639473965974e-05
1.0825892439288581766e-05
1.089900525254178785e-05
1.0952866457624943838e-05
1.0992166706429248884e-05
1.1019627016095324325e-05
1.1169083676637302509e-05
1.1166768498801997304e-05
1.1184720919911133019e-05
1.1258519070627932425e-05
1.1356817734159687316e-05
1.1443004014207744059e-05
1.1518154853161850762e-05
1.1582230322305359958e-05
1.1635730011193452115e-05
1.1679606779739244699e-05
1.1714270199903787346e-05
1.174070357203322733e-05
1.1758963885990727591e-05
1.1769871186189147583e-05
1.1773095442558848803e-05
1.177065601171143018e-05
1.176385378202983884e-05
1.1755414616562315323e-05
1.1744618822565308148e-05
1.1725075200816006569e-05
1.1676325155449887363e-05
1.1589483969095102674e-05
1.151315758235701403e-05
1.145487023577267524e-05
1.1416719190967537618e-05
1.1395319502922745617e-05
1.1385442797001669928e-05
1.1379446580934894656e-05
1.1381784491049159872e-05
1.1411797722013943587e-05
1.1501490528999205236e-05
1.1593035632328267074e-05
1.1670520982012713533e-05
1.1734499448875562453e-05
1.1786491934133899289e-05
1.1826727403884447425e-05
1.1856535245172032981e-05
1.1876003549096014094e-05
1.1886704418228857062e-05
1.1890054044772720672e-05
1.1887623397286193344e-05
1.188151997510733243e-05
1.1873365076371753075e-05
1.1864133897600999604e-05
1.1851192470347736809e-05
1.1825970367096538585e-05
1.1767527950446636607e-05
1.1699121452380261711e-05
1.1642524597161312439e-05
1.1599643368248743568e-05
1.1570884741708898879e-05
1.1553413259860676238e-05
1.1543294669462254802e-05
1.1535916667274826995e-05
1.1532712166160454309e-05
1.1543746989127047527e-05
1.1589289895444821496e-05
1.164461440872385152e-05
1.1697462882044656481e-05
1.1749647505672510252e-05
1.1800359307704397265e-05
1.1848843152337027422e-05
1.1892580169030260066e-05
1.1929471228389730987e-05
1.195754778545994597e-05
1.1976773209631685782e-05
1.1986806142019601818e-05
1.198943727343177667e-05
1.1986379233402801937e-05
1.1980151327398363221e-05
1.1972189404436894101e-05
1.1962916087975055063e-05
1.1948712106597982521e-05
1.1917965083437457514e-05
1.1855545359228922657e-05
1.1794181251264118795e-05
1.1743006416456036221e-05
1.1703129932953324114e-05
1.1674380332946642115e-05
1.1654331183966133077e-05
1.1640888159510841905e-05
1.1630668513434233035e-05
1.1622048995673800125e-05
1.1615017866029934122e-05
1.161327559259761544e-05
1.1626677307319078106e-05
1.1652442651022393272e-05
1.1680473582030623106e-05
1.1712031087772725773e-05
1.1747632556060978661e-05
1.1786428954150959196e-05
1.182701589769792463e-05
1.1867269409172872822e-05
1.1905152921899044756e-05
1.193819172889837242e-05
1.1965199620565399697e-05
1.1985018256170527817e-05
1.1997051096982988864e-05
1.200197308885661313e-05
1.2000324114307494268e-05
1.1994467292791227491e-05
1.1986087131128353773e-05
1.1976665440601744095e-05
1.196337966450456611e-05
1.1936925602053516732e-05
1.1883823707762079951e-05
1.1831324193445899852e-05
1.1786651043732330839e-05
1.1750824367764055257e-05
1.1723751295480103698e-05
1.1704261970814077237e-05
1.1690773502557149223e-05
1.1680598268149581454e-05
1.16724345549523107e-05
1.1665909547552531862e-05
1.1666488782054765963e-05
1.1690766728724518478e-05
1.175670170815479895e-05
1.182304774469989708e-05
1.1882387373062648867e-05
1.1932887563042324136e-05
1.1972640199585186442e-05
1.2001158136455477719e-05
1.2018789914915852326e-05
1.2026986560104538008e-05
1.2027618048610630371e-05
1.2023315861626184757e-05
1.2015908136520975544e-05
1.2007490932806662035e-05
1.1998544320845798211e-05
1.1988654202132900082e-05
1.1976488121206677756e-05
1.1957550090907176186e-05
1.1917471634666555689e-05
1.1856987642800358892e-05
1.1798658206175919864e-05
1.1745522456205362042e-05
1.1699731409713076262e-05
1.1662271426819447232e-05
1.1633718799064469586e-05
1.1612993152474774847e-05
1.1598783723582564012e-05
1.1588898817125650099e-05
1.1580992351596552229e-05
1.1574342478245681497e-05
1.1572162428736534542e-05
1.1584718484465351374e-05
1.163070962831119659e-05
1.1681756278433272296e-05
1.1727237068366102386e-05
1.1766336502305956732e-05
1.179835945232526347e-05
1.1822820527095859714e-05
1.1839948665451371741e-05
1.1850171889652808766e-05
1.1854338584342763254e-05
1.1853781213228594126e-05
1.1849482627295229508e-05
1.1842676274408752942e-05
1.1834706132561379732e-05
1.1826115036175578984e-05
1.1816650361748144089e-05
1.1805586391983718196e-05
1.179010380969016895e-05
1.176414707326686252e-05
1.1735128783296025736e-05
1.1705839419528439889e-05
1.1675839911598646169e-05
1.1644584841960757955e-05
1.1611813486637089421e-05
1.1576765194121301482e-05
1.153935401255394562e-05
1.1500591105868056174e-05
1.1461721031413141638e-05
1.1425344400081752894e-05
1.1393426682542980369e-05
1.1368700574775470372e-05
1.1351453093242404381e-05
1.1340283859913274816e-05
1.1332350509323540388e-05
1.1327850533685939583e-05
1.133658598741285244e-05
1.1388697053365125531e-05
1.1515110574215493342e-05
1.16341511826482831e-05
1.1732035329996773348e-05
1.1808670528766197988e-05
1.1865239001221548077e-05
1.1905192963188610469e-05
1.1931577842222447071e-05
1.1947339755374925847e-05
1.1954655439106116186e-05
1.1955464211753406175e-05
1.1951213421878547979e-05
1.194416262284583955e-05
1.1935669937740904406e-05
1.1925350477030466107e-05
1.1907574163746335671e-05
1.1865137096668606313e-05
1.1762421094615589556e-05
1.1644671091779029682e-05
1.1537630736407696418e-05
1.144430817334205367e-05
1.1367207993082600821e-05
1.1307729347072932087e-05
1.1265082213009423772e-05
1.1237534693356620292e-05
1.1221434306161400831e-05
1.121214328043232568e-05
1.1205269104309296458e-05
1.1203249194305975501e-05
1.1217591134766444745e-05
1.1281647692336601902e-05
1.1378483194622026489e-05
1.1461676026694172251e-05
1.1528798479629365534e-05
1.1579365425987826643e-05
1.1614367836666041414e-05
1.1635855530608004584e-05
1.1646716036240614911e-05
1.1649644499682565386e-05
1.1647258165740191632e-05
1.1641618437902335223e-05
1.1634487193973373602e-05
1.1626760930456626726e-05
1.1618697121108895686e-05
1.1610377636579944424e-05
1.1601120130370868875e-05
1.1589282390222195389e-05
1.1570248181561320223e-05
1.1529036551684141939e-05
1.1459210551668575135e-05
1.1385990466664858877e-05
1.1312688893906300229e-05
1.1240994062496782586e-05
1.1172947777407409492e-05
1.1110422010254244956e-05
1.1055382615124118489e-05
1.1009779552158577664e-05
1.097442363793624457e-05
1.0949415773439941373e-05
1.0933238734594947361e-05
1.0923336265823852868e-05
1.0915973254120713985e-05
1.0911436814928642211e-05
1.0916623145099491017e-05
1.0952979752179515318e-05
1.1041900016721729836e-05
1.1126919238847436818e-05
1.119945444461776443e-05
1.125876588660197511e-05
1.1305284294058207239e-05
1.1340514873336633071e-05
1.1366467585701351729e-05
1.1384506923506412869e-05
5.1241629840347334116e-07
6.2924805830950445871e-07
7.3350780496797748282e-07
8.1352397564279516e-07
9.0627986558375311047e-07
1.0303288101742133028e-06
1.1430638530361879676e-06
1.2091744032989880237e-06
1.2522216506451846011e-06
1.3299307271158795483e-06
1.4907571660341773885e-06
1.6272400803998120222e-06
1.698023867277569685e-06
1.7477895743116703246e-06
1.826171603401229546e-06
1.9304331345781642502e-06
2.0250554385113828255e-06
2.0891472370216520406e-06
2.1383581447648685633e-06
2.2098719437896682584e-06
2.3292936705750400733e-06
2.4846556846278533018e-06
2.6314523039268975776e-06
2.7296640797057018198e-06
2.7747631753727127367e-06
2.8008154568958386579e-06
2.8533848321965812093e-06
2.9615286323697345774e-06
3.0491198005805174101e-06
3.1038768541647861776e-06
3.1658808745646511325e-06
3.2635566380519633694e-06
3.3771257441798916191e-06
3.4663579287028165084e-06
3.5203568172642549565e-06
3.5725227506924492628e-06
3.6569776527830587985e-06
3.770642024204153076e-06
3.8802312634403437759e-06
3.9567464579078440065e-06
4.0065345588210661871e-06
4.0629272522197269741e-06
4.1537511981517825265e-06
4.2746216579883593488e-06
4.3937776505852652492e-06
4.4800743664220952283e-06
4.5261692156187886913e-06
4.550489815972629189e-06
4.5795347805527689448e-06
4.6344987889337137452e-06
4.7218862964223618642e-06
4.8318387555823894976e-06
4.9440547253312150863e-06
5.036654349825117544e-06
5.0969390618230877365e-06
5.1287818170964308146e-06
5.1524267448826003128e-06
5.1970889257198570152e-06
5.3064788483426522143e-06
5.4740335319560369816e-06
5.6319288051773818411e-06
5.7490204092346037276e-06
5.8150451832654850249e-06
5.8402808480470024888e-06
5.8458281971545671089e-06
5.8492648569920801868e-06
5.8610404927412336712e-06
5.9009199589223116126e-06
5.9960316621090552124e-06
6.0991642907682849692e-06
6.1939054582584680822e-06
6.2713501735026185412e-06
6.3255740013322851731e-06
6.3581279342952520291e-06
6.3833107557816501446e-06
6.4281784219834832807e-06
6.5316233667498508646e-06
6.6990013626695721428e-06
6.8905674007134999482e-06
7.0676345220275967277e-06
7.1967280234852191889e-06
7.2638851685252108374e-06
7.281656533225062444e-06
7.2771413277313611246e-06
7.2616458746361592572e-06
7.2405719150223604543e-06
7.233367703923260312e-06
7.2369080216706674433e-06
7.2814110857505801898e-06
7.4056444967976182389e-06
7.5042872422196301108e-06
7.5586495534297519169e-06
7.5822128767812427613e-06
7.5973387583623711464e-06
7.6294715754146864541e-06
7.7083406707853281833e-06
7.8215945311493975136e-06
7.9398060021437873895e-06
8.0438715281165604432e-06
8.1191573518205531067e-06
8.1590873032377771266e-06
8.1699025919719992021e-06
8.1658881470983518761e-06
8.1571276864931875378e-06
8.1466444779091496233e-06
8.1413630038531208241e-06
8.1441201500103601853e-06
8.1796117533200329429e-06
8.2683712312548813601e-06
8.3487553200989928794e-06
8.4139174349184000867e-06
8.4659785625247799783e-06
8.5096511250825396293e-06
8.5528067655483542653e-06
8.6046165884701017934e-06
8.6717190522893045199e-06
8.7550043781670590696e-06
8.8500391260744455354e-06
8.9471669566795225022e-06
9.0341610723505734606e-06
9.1005436019605959533e-06
9.1390158337630015862e-06
9.1514294950306754149e-06
9.1478425551454755786e-06
9.1391502362065405113e-06
9.1270456345652549142e-06
9.1202696070253992601e-06
9.1218283395867363867e-06
9.1563050283306392392e-06
9.2511360574985162294e-06
9.3377231600029007971e-06
9.4048757294931704194e-06
9.4526217089858678981e-06
9.4806098247363769602e-06
9.4927880018788144426e-06
9.5000529497622934429e-06
9.5162141284676172938e-06
9.559309753048232826e-06
9.6285018496012210709e-06
9.7093065968651782392e-06
9.7908417196715029032e-06
9.8640357582679362485e-06
9.9245006350772734297e-06
9.972715575516754151e-06
1.0012130184087585371e-05
1.0045916331332714415e-05
1.0074763965139083786e-05
1.009719254493944988e-05
1.0111224279762042873e-05
1.0116479000799571671e-05
1.0114682859287241245e-05
1.0109173059029808275e-05
1.0102467620971322443e-05
1.0096006634162126884e-05
1.0091763643984076975e-05
1.0095174481776517876e-05
1.0120705139138857969e-05
1.0187029144323331842e-05
1.0267095711481880147e-05
1.0354928629600155179e-05
1.0447637518697883651e-05
1.0541910331682002256e-05
1.0632582402416296331e-05
1.0715639942691987583e-05
1.078505951321037193e-05
1.08369594155595521e-05
1.0870045194823765316e-05
1.0885141967561719702e-05
1.088711521284100804e-05
1.088156844216774112e-05
1.0873223035062275717e-05
1.0859258150202065178e-05
1.0829347997057911811e-05
1.0796350954714357357e-05
1.0771656425646365272e-05
1.0754846793505943523e-05
1.0745630271863540231e-05
1.0740483523885121017e-05
1.0748282213473276092e-05
1.0800937777953996616e-05
1.0939483245450979117e-05
1.1074669346386989456e-05
1.1190148255156641849e-05
1.1288821628395607078e-05
1.1373346709711573688e-05
1.1446822408434589952e-05
1.1510556922481306749e-05
1.156285012965015169e-05
1.1601919249798588261e-05
1.1702229164428452001e-05
1.1694431596942035371e-05
1.169250692213289924e-05
1.1711405384350435588e-05
1.1788801447752590847e-05
1.1895594836718380064e-05
1.1992235517354589292e-05
1.2078927115679370275e-05
1.2155220955597961208e-05
1.2221004856814739187e-05
1.2275790019863216953e-05
1.2320145258958713032e-05
1.2353492200525903325e-05
1.2376111183069498617e-05
1.2387661731562395344e-05
1.2389686202780994729e-05
1.2384309770712362151e-05
1.2375575739091971598e-05
1.2363423296620784398e-05
1.2337899675225815437e-05
1.2270516405506524629e-05
1.2181210732141866068e-05
1.2110975249607448053e-05
1.206283743251604147e-05
1.2034712173849085472e-05
1.2021331819833536232e-05
1.201401099918867348e-05
1.2013868032699604691e-05
1.2037700197004225569e-05
1.2115800355886788248e-05
1.2198838766670065962e-05
1.2268150102361738299e-05
1.2327637933588181154e-05
1.2378627541702817339e-05
1.2423573442650658475e-05
1.2462342755162592498e-05
1.249526452266666605e-05
1.2521077796605347121e-05
1.2538961945180092814e-05
1.2548729579099271903e-05
1.2550402671909860973e-05
1.2545938656820208325e-05
1.2537563518153510369e-05
1.2527434074781998869e-05
1.2511284707314508069e-05
1.2474233080881023182e-05
1.2394895816894925644e-05
1.2320418983173346731e-05
1.2262993509172133411e-05
1.2224010713519335789e-05
1.2200731514613096526e-05
1.2188346453328896646e-05
1.218048519247381092e-05
1.2178310782885489385e-05
1.2196333867631444159e-05
1.2256864930782692286e-05
1.2319127231155410773e-05