/*--------------------------------*- C++ -*----------------------------------*\
  =========                 |
  \\      /  F ield         | OpenFOAM: The Open Source CFD Toolbox
   \\    /   O peration     | Website:  https://openfoam.org
    \\  /    A nd           | Version:  12
     \\/     M anipulation  |
\*---------------------------------------------------------------------------*/
FoamFile
{
    format      ascii;
    class       volScalarField;
    location    "0.016";
    object      p_0;
}
// * * * * * * * * * * * * * * * * * * * * * * * * * * * * * * * * * * * * * //

dimensions      [1 -1 -2 0 0 0 0];

internalField   nonuniform List<scalar> 
75962
(
98863.868036520696478
98762.873562337874318
99011.34732515385258
99026.953223406104371
99123.60725944560545
99225.822074932599207
99209.113563432823867
99167.470831324564642
99139.779600283436594
99109.358452629705425
99035.886160556736286
98989.557088454355835
99127.203009909717366
99309.75209313200321
99322.611154533049557
99192.286088563792873
99079.732178878315608
99064.475646398059325
99119.396849574157386
99200.379897286096821
99265.08092066757672
99256.253090799466008
99178.692301196584594
99105.133983966210508
99094.811274661755306
99096.332798596835346
99076.705582630238496
99068.288704681181116
99079.723625856917351
99093.347195360722253
99127.624839418858755
99180.14259843347827
99204.362341419604491
99172.375866784597747
99127.954035313552595
99116.323800445170491
99138.592056766297901
99164.612871418954455
99176.783942170572118
99175.942265428820974
99166.213007539714454
99164.587166224926477
99180.20231897222402
99204.470974519150332
99226.199781618051929
99230.610171351450845
99207.690992793650366
99173.849330916869803
99161.476015326057677
99186.822685886028921
99224.877741233984125
99243.529078395935358
99238.735105243322323
99223.40410825573781
99208.080105103421374
99197.852066327890498
99187.591092615170055
99161.801053333852906
99110.981600587969297
99052.04518628140795
99018.504558723274386
99029.183560087825754
99074.817421978048515
99119.636795618818724
99130.992232426346163
99114.626628589467146
99099.508675728488015
99109.380033026551246
99137.553090442801476
99158.776050142172608
99157.593401986712706
99145.233412629386294
99143.539529366069473
99156.486940642338595
99165.952065578283509
99148.179608123187791
99099.263639870652696
99043.257082791096764
99007.598754646140151
99003.175811915003578
99023.173400664905785
99052.966049258437124
99078.671770620567258
99087.55099974879704
99077.093473182016169
99057.417457148971152
99047.180762749412679
99056.020265850704163
99071.412189968294115
99076.613976626787917
99067.346308860971476
99051.310422240669141
99033.855328153978917
99010.893672814418096
98976.820061688573333
98937.597973820782499
98909.956300108024152
98908.824200354021741
98935.801874125754694
98975.182222963601816
99006.376795054529794
99022.41269681751146
99032.447575373676955
99045.70867716986686
99060.53907559500658
99063.632455265294993
99044.047483833070146
99004.539966992029804
98962.028453361825086
98937.312224234876339
98941.388798603948089
98966.347227933365502
98992.253903139091562
99005.034205934091005
99006.697752756852424
99010.793697824017727
99024.689295427087927
99040.022107819298981
99043.285522967402358
99029.039487613888923
99004.913613295255345
98983.656604358475306
98972.579574753894121
98969.166661987896077
98967.476364460395416
98965.128729876596481
98965.225509219191736
98972.342884787809453
98987.033389970121789
99005.40930523017596
99020.805859087980934
99027.132108294244972
99022.966740181364003
99013.201346313799149
99007.449645193075412
99014.548596209991956
99039.894367742876057
99073.751794682684704
99099.438425539716263
99098.937163214490283
99067.387791919987649
99019.20327556252596
98976.043888236061321
98955.824984299339121
98965.129012861303636
98998.654415361437714
99043.742038396754651
99085.317224189755507
99110.89887911810365
99114.776853768911678
99097.607828457301366
99066.49191597646859
99031.859824105180451
99002.748213784245308
98985.839425455895253
98985.453749450825853
99002.672785036993446
99034.618141451457632
99073.604506965362816
99108.138951801491203
99129.401714823048678
99133.748048394569196
99122.38448165912996
99098.537124115944607
99066.724486563180108
99033.011191284473171
99004.146474519817275
98987.649200599771575
98985.860644469212275
98994.283346586671541
99004.457888372140587
99011.019329672286403
99012.730485801730538
99012.733356278738938
99015.742139702706481
99025.336176562603214
99042.629691057489254
99064.665120215999195
99083.97870614544081
99091.484511634494993
99081.27127358065627
99054.567274303612066
99019.987647739559179
98988.907996989073581
98969.76154149264039
98965.070949266431853
98971.915547112817876
98984.673940119682811
99167.889135504621663
99185.67115407223173
99205.582491225999547
99222.127419472977635
99232.751541414487292
99238.398918961276649
99242.995450233516749
99250.555956901647733
99262.02397121861577
99274.391880817711353
99282.471117590059293
99282.292253670180799
99273.266368770375266
99258.981677981850225
99245.357446638008696
99236.915938425256172
99234.695296866018907
99235.865719407011056
99235.622556909089326
99230.299649403503281
99219.843862776178867
99208.033233092646697
99200.382338943963987
99201.99260151728231
99214.903244010536582
99237.06399848232104
99263.653788032373996
99288.539611248852452
99305.830124556770897
99311.752096040232573
99305.155686284619151
99287.597678757651011
99262.463770721529727
99234.28344746059156
99207.713927847624291
99187.057063752872637
99175.135683566477383
99172.368972562544513
99176.923408914488391
99184.771662144732545
99192.290219348040409
99197.175118636689149
99199.354589013120858
99200.354468021570938
99202.386036575757316
99206.663552463447559
99212.750143565586768
99219.494559523081989
99225.909484995368985
99231.53604679350974
99236.530918336851755
99241.223867674911162
99245.230592172840261
99247.525584052069462
99247.124078221284435
99243.899963040443254
99238.936714683906757
99234.233597129263217
99231.884509600757156
99232.908602676543524
99236.251787637113011
99239.168848409914062
99238.306765834786347
99231.761018306700862
99220.240009808156174
99207.265043963707285
99197.75472416410048
99196.188097794074565
99204.160220934994868
99219.74861792671436
99238.905109776707832
99256.658903470859514
99270.344801582454238
99279.654598902794532
99286.297987823316362
99292.080048600022565
99297.228535250629648
99300.117217216466088
99297.897124658760731
99287.824309282383183
99269.240681843890343
99244.813666268368252
99219.460049178844201
99199.299861790670548
99189.976257541929954
99194.621421415169607
99213.240101911331294
99242.413625628993032
99276.316895900745294
99308.298870179060032
99332.428688756597694
99345.253007954015629
99345.759715257707285
99335.308696477979538
99316.806283327779965
99293.607672501035267
99268.845524761185516
99245.247893816660508
99224.9467291902547
99209.591878549050307
99200.214033147029113
99197.426067656822852
99201.242230775591452
99211.173103613080457
99226.022078741021687
99243.981620950013166
99262.809471952656168
99280.143993682155269
99293.690141658051289
99301.389547735583619
99302.370905033501913
99296.59780922284699
99284.850358576208237
99268.708357650379185
99249.89134984445991
99230.345046406670008
99211.65324375210912
99195.541089137550443
99183.415670311427675
99176.84275053111196
99176.360487758196541
99181.520638043992221
99190.710396207767189
99201.183063175776624
99209.896889822732192
99214.92576540481241
99214.935387097779312
99210.642589000141015
99203.985082576415152
99196.249531463428866
99188.766512494723429
99181.959250886342488
99175.454595956296544
99169.014708676302689
99162.897167195013026
99158.116853649975383
99156.016959561442491
99157.926694186011446
99164.524122162722051
99175.332882962335134
99188.742068116887822
99202.652330593075021
99215.151804748689756
99224.931793239942635
99231.641184896434424
99235.749083921851707
99238.323673044898896
99240.624687646602979
99243.659767594188452
99248.104718862974551
99254.304238872791757
99261.9236342045333
99271.07089271384757
99280.874000048817834
99291.605073975733831
99301.691746702417731
99310.530409586775932
99316.514384744150448
99317.716512500337558
99313.345363484098925
99303.653794677302358
99289.740006500549498
99273.667595856633852
99258.262196495881653
99246.722789068589918
99241.291316859758808
99243.187099363174639
99251.86222282097151
99265.312997523491504
99280.763444179610815
99295.102181247551925
99306.022470254290965
99312.087422577795223
99313.041443037378485
99309.268123040674254
99301.529441766484524
99290.826333831471857
99278.374577961221803
99265.665485989797162
99254.276493068871787
99245.696173596486915
99241.105034913300187
99240.785933913532062
99243.92277570447186
99248.974489388841903
99253.32926854811376
99254.609173525852384
99251.491159472527215
99244.17395895163645
99234.318614887641161
99224.845414985698881
99219.109438640196458
99219.889516375391395
99228.720490676496411
99245.355255248650792
99267.87986306087987
99293.194521268611425
99317.783203001512447
99338.551387309926213
99353.507455079539795
99362.252111606372637
99365.8911450637097
99366.391192623370443
99366.133378595346585
99367.036998630996095
99370.134325171355158
99375.392300562103628
99381.913927134010009
99388.539884499376058
99394.114890088749235
99397.897226858360227
99399.864299515349558
99400.48959938333428
99400.240663676027907
99399.8899345134123
99399.607974887898308
99399.195864536930458
99398.483871981690754
99397.362893907527905
99395.841401554862387
99394.225516387668904
99393.204368462756975
99393.67626632390602
99396.423476573108928
99401.924572798670852
99410.165192033324274
99420.50363440788351
99431.528761770940037
99441.549942831741646
99448.919277236636844
99452.367534160992363
99451.123415046691662
99445.237371702023665
99435.406121693376917
99423.020713206933578
99409.76014155196026
99397.309569129123702
99387.008255132808699
99379.879578899242915
99376.431259739547386
99376.636807390998001
99380.07196160555759
99385.935966684643063
99393.128615700843511
99400.43465925923374
99406.780398392002098
99411.240574122683029
99413.209116788711981
99412.604402194250724
99409.818378938594833
99405.578249179132399
99400.812509713039617
99396.514733376534423
99393.610576168284751
99237.430248502205359
99263.465915562250302
99273.089534745377023
99214.848856345139211
99157.920490662843804
98970.626195905904751
98917.81090117446729
99027.573449683695799
99094.635104112952831
99155.761335069328197
99198.495440557002439
99189.161734201581567
99253.284091192312189
99375.032184442636208
99386.760404305969132
99262.454616754854214
99165.61046253053064
99172.77500850558863
99214.487539898691466
99266.108860730295419
99325.219345207879087
99320.004263982104021
99220.263273370364914
99122.970379771286389
99113.728402374443249
99124.627925567358034
99093.074800631235121
99052.269426916478551
99039.308808814792428
99054.865781541215256
99109.495501310389955
99192.335111524909735
99246.333543213215307
99241.826116068841657
99211.517305020461208
99193.645218434219714
99186.010412553747301
99177.271226593686151
99169.489053798635723
99157.200292052904842
99135.53562891126785
99125.126590000872966
99142.584194605296943
99188.58095956024772
99236.085280421335483
99251.316954156485735
99229.057504348500515
99196.351895418003551
99183.465162772146869
99194.720709895569598
99209.118321656438638
99208.720064265624387
99195.619254720935714
99179.382950701095979
99169.202440021865186
99169.568669744898216
99174.51705539674731
99162.938643825051258
99123.200525082400418
99072.203335681697354
99042.831318985146936
99053.523350765026407
99098.022327983970172
99147.533555252899532
99169.773191185871838
99157.907457082794281
99137.927254840033129
99142.202872502093669
99169.8284279658983
99191.223759959219024
99186.237517309753457
99162.640283818574972
99145.542213511449518
99147.258326754992595
99154.722283953116857
99143.004802606999874
99105.602786990435561
99059.740616127310204
99030.546282398601761
99027.592589979394688
99040.817836724832887
99056.798954949845211
99068.028936653703568
99069.170467651900253
99059.90864123305073
99047.925991834461456
99045.943977242015535
99056.877710847751587
99068.774949751677923
99067.607692800665973
99051.877165423415136
99028.322926924389321
99004.338846612052293
98978.900367410868057
98949.71047802324756
98920.364032880519517
98902.057301366396132
98907.186167734369519
98936.99995060657966
98976.387171308568213
99004.026149194018217
99010.630228744688793
99007.985897466365714
99014.47203162794176
99031.977086233659065
99042.907132069245563
99028.405149778744089
98989.160249386754003
98946.786996621827711
98927.341411559973494
98940.535934792962507
98972.764415138779441
98999.373667869003839
99006.603514118018211
99001.892297928367043
99002.375689353633788
99017.010376209640526
99038.56853593372216
99051.53575241829094
99046.712144284276292
99027.837804990878794
99005.11732984163973
98987.391847471240908
98976.778960887430003
98972.622959621614427
98971.540481222880771
98972.635582818285911
98976.274826130407746
98982.014335388215841
98988.502283548237756
98993.354709034945699
98995.048775873598061
98993.635369628813351
98993.45335267262999
99000.390715913817985
99019.563289866651758
99050.350003115294385
99082.350134643682395
99099.665129889719537
99089.406983110588044
99050.486169537907699
98998.40801295467827
98954.567586836928967
98934.941676266418654
98945.771239135312499
98980.192981238185894
99024.327858793491032
99063.441633795329835
99087.725942331613624
99093.187295857991558
99081.082925925991731
99057.035015047105844
99027.869091580796521
98999.301841902197339
98976.906224890844896
98966.821444841945777
98973.509808548464207
98997.989348855786375
99035.759459803361096
99076.164383497569361
99107.423838555114344
99121.075715246290201
99114.271241943119094
99089.346756893079146
99053.177969433076214
99016.57156666147057
98989.960352501409943
98980.016779925135779
98986.850737092885538
99003.708887900531408
99020.104745906588505
99030.040236536995508
99032.347439867284265
99030.348749900615076
99029.547093921442865
99035.175817237992305
99049.916300243450678
99071.72523071411706
99092.726427353263716
99102.664091538244975
99094.73815984405519
99069.35771608747018
99034.395758087848662
99000.969234777614474
98977.947840755266952
98968.292348526476417
98971.166128822529572
98982.625802159454906
98999.856621939790784
99172.456432978098746
99180.440979537335807
99194.821441353517002
99211.555613553602598
99227.30151389099774
99239.617291120157461
99249.223531513067428
99258.272810923634097
99268.48800750002556
99279.965972091900767
99289.606526173680322
99293.788544491340872
99290.078724483610131
99279.045276780510903
99264.397573702663067
99251.206766725576017
99243.039304816920776
99240.325465430156328
99240.429186957248021
99239.610310470990953
99235.296545556775527
99227.446447538532084
99219.22505285119405
99215.32704590272624
99220.021232599159703
99234.423899792280281
99255.779994167751283
99278.884270203387132
99297.594382422394119
99307.411235915875295
99306.53385680395877
99295.807346304034581
99277.868892022801447
99256.414080875576474
99234.82774974538188
99216.26899597189913
99202.841466211000807
99196.176827969960868
99196.553235881801811
99201.25104126908991
99206.965831128574791
99210.516241977049503
99210.584296524422825
99208.497893587657018
99206.904952314172988
99209.121765065472573
99216.157729082027799
99226.589973584239488
99237.839865348738385
99247.075651632389054
99252.962836179882288
99255.799526812246768
99256.738270409812685
99256.703414206640446
99255.772364706775988
99253.470517828769516
99249.645682912465418
99244.928570732445223
99240.606350372516317
99238.14116608283075
99238.242048951084143
99240.160457911755657
99241.374533100984991
99239.078541895796661
99231.863519496502704
99220.758047073148191
99209.385519128234591
99202.684183322257013
99204.17542164256156
99215.176636671531014
99232.770854548405623
99252.974080568892532
99270.581568243476795
99282.88498625374632
99290.270503770792857
99294.641360922309104
99297.645132346020546
99299.355428145558108
99298.006417062919354
99291.106837143554003
99276.788933550109505
99255.303109866916202
99229.931403485170449
99206.001917092333315
99188.85610540980997
99182.934243810916087
99190.384114062908338
99209.983510198886506
99237.909555148755317
99268.50679305504309
99295.947206221346278
99315.551952215057099
99324.959957868180936
99323.750649792928016
99313.496587575747981
99296.768572089582449
99276.371983425400686
99254.864621152009931
99234.43144192219188
99216.853108634837554
99203.610876264239778
99195.932246486394433
99194.617137159380945
99199.818097568917437
99210.799444338306785
99226.199053479518625
99244.030781305133132
99261.802404258603929
99277.176825314410962
99288.050617185916053
99292.893537022915552
99291.125015456142137
99283.189878106088145
99270.472903183021117
99254.633493995497702
99237.371670740598347
99220.493740099453134
99205.267882373431348
99192.641388075062423
99183.666162457564496
99179.203839937006705
99179.632524621280027
99184.518682082503801
99192.139534224013914
99200.471214666526066
99206.903710221609799
99209.071733747594408
99206.683349392347736
99200.639768660519621
99192.705329860051279
99184.747806388564641
99177.596867201922578
99171.526395778011647
99166.272704841831001
99161.284856292142649
99156.870444052052335
99154.160372445257963
99154.776715920248535
99159.962958125397563
99170.145687024516519
99184.390822739864234
99200.600148963640095
99215.900544780146447
99227.86950877084746
99235.088193164468976
99237.586508498570765
99236.468146923347376
99233.678465585267986
99231.391631959064398
99231.634416073138709
99235.575244684543577
99243.761933784029679
99255.253476646976196
99269.087337013377692
99283.391772071074229
99296.260099780833116
99306.069458634563489
99311.398691696929745
99310.684102706451085
99303.599862353934441
99290.94308869165252
99273.888075758077321
99254.530757347209146
99235.520366310171084
99219.735349590831902
99210.200352781219408
99208.551229512828286
99214.920645346937818
99227.991197788258432
99245.026638085662853
99262.441482308800914
99277.030851445175358
99286.580435497133294
99290.247712569762371
99288.400656758720288
99282.272673933432088
99273.388350756460568
99263.047951003914932
99252.330379085266031
99242.529954021360027
99234.734801106562372
99230.110451436354197
99229.377095561736496
99232.728991453899653
99239.301972678018501
99247.321817317933892
99254.263566484092735
99257.717746769179939
99256.243123057065532
99249.880050967185525
99240.388207173600676
99230.703629475669004
99224.032116512695211
99223.314138405112317
99230.16324982381775
99244.310590212422539
99263.855470632915967
99285.75267991128203
99306.591591646050802
99323.486827483677189
99334.807517875015037
99340.440453479532152
99341.714929196270532
99340.750833374782815
99339.775965852357331
99340.457567348683369
99343.748858147067949
99349.549218915737583
99356.915813565137796
99364.595687222128618
99371.42362558444438
99376.715401937544812
99380.245012592538842
99382.076132464673719
99382.629297889361624
99382.009653087996412
99380.480685194459511
99378.19288360371138
99375.263832910757628
99372.127677718846826
99369.52275058325904
99368.369659930525813
99369.531161584309302
99373.560987870470854
99380.615917849296238
99390.431587368264445
99402.14330381443142
99414.518244255974423
99426.140777858672664
99435.369824110865011
99440.908368812859408
99441.855642432710738
99438.010825456643943
99429.765482261209399
99418.229357174262987
99404.782966400234727
99391.083974305845913
99378.659380918717943
99368.782511543380679
99362.203545024094637
99359.267376202958985
99359.840685062605189
99363.378241814381909
99369.161393729562405
99376.318475231193588
99383.967148181545781
99391.253573685389711
99397.482487994770054
99402.168310748747899
99405.062968149068183
99406.262957421393367
99406.16329736080661
99405.242065749611356
99403.946963180642342
99402.689148377117817
99344.094800311650033
99462.874812885158462
99334.365817383062677
99212.885411583454697
99089.559763314318843
99059.290018532657996
99184.689849174508709
99231.223422335548094
99180.229168307807413
99259.987401117236004
99376.379909260402201
99393.307015981263248
99367.141871070460184
99387.010011579943239
99387.352154461434111
99328.407535973397898
99306.177044078707695
99335.47253746871138
99327.491841173396097
99308.149333149121958
99357.066310281152255
99397.87979729451763
99322.772081912742578
99211.947920283695566
99181.930251676094485
99187.53117125153949
99143.91931221044797
99070.484819173449068
99037.523209854203742
99057.62226847326383
99118.271459290845087
99202.137002323943307
99268.711389377174783
99293.589109376014676
99283.42351923751994
99256.940706374603906
99222.318066686071688
99193.375921521539567
99173.973116875204141
99150.713748978756485
99120.372478861987474
99101.417957791913068
99120.415954518277431
99179.103531189844944
99239.45790574856801
99260.642172000400024
99241.927845405618427
99211.417822706629522
99190.483777190951514
99178.632450216406141
99166.370644325899775
99153.04664332496759
99144.637701964136795
99142.233610313123791
99143.643392102210782
99153.788641056860797
99170.127906657668063
99175.183572786831064
99154.17233907917398
99115.420713933184743
99084.603884838652448
99084.402605005641817
99118.704273180221207
99169.398636673227884
99203.412183894019108
99198.669021251043887
99174.075974667517585
99164.227582354593324
99180.765291316711227
99201.156899605484796
99198.905129330247291
99173.619997070723912
99146.924536596430698
99138.090562822151696
99143.329462239344139
99142.773062460139045
99126.698155977734132
99099.453673927142518
99075.59652482571255
99061.016093990721856
99054.673051235309686
99053.175832738343161
99053.048620739355101
99050.151712321370724
99042.501085229872842
99034.006099199847085
99031.724887365431641
99036.875115864677355
99042.138524697598768
99038.972708517481806
99027.143991310280398
99008.044923446665052
98983.521490504965186
98956.992197072235285
98933.369320488010999
98915.034356072341325
98905.827844713596278
98912.616600300709251
98936.273599298874615
98965.358586059941445
98981.959172244445654
98980.283575036519323
98972.984383833128959
98977.739047926603234
98995.742087400445598
99009.079759207816096
98998.675947792289662
98968.528055079295882
98940.581317121905158
98936.942308479730855
98961.346581146455719
98996.69373069384892
99018.001089469835279
99016.773614186095074
99003.851403398744878
98997.49245065303694
99007.64519526969525
99029.970184347053873
99050.496089120235411
99056.105582005286124
99044.378867897146847
99023.377954703755677
99005.175880536145996
98996.917476302347495
98996.027280401758617
98996.341379951423733
98993.099723261620966
98985.575769769420731
98976.982659656219766
98970.648951416500495
98966.836877908572205
98965.86488611601817
98969.73922619476798
98981.435398347937735
99003.594730398981483
99035.542181542361504
99068.376891790816444
99090.887774509450537
99093.33384665241465
99071.921456117212074
99031.155384513243916
98982.773981281643501
98942.375781008769991
98922.335854953707894
98928.213188580339192
98956.240360909083392
98995.078801258467138
99032.507396740926197
99058.647653669380816
99069.826439795651822
99067.826659727434162
99055.296589730598498
99033.991825848497683
99006.154868363155401
98976.359202675055712
98953.402939804902417
98947.005345202749595
98962.502545752606238
98998.300931390971527
99044.491692472074647
99085.9226711888914
99109.424343186808983
99108.407208225253271
99085.003076427572523
99048.664521133396192
99012.560353564753314
98989.172142969429842
98984.502773962260108
98997.209780741788563
99019.507080193245201
99041.711854187393328
99056.783863346892758
99061.728050529753091
99058.366176397947129
99052.295448519973434
99050.837722964017303
99059.343999963544775
99077.180939963538549
99097.06287146442628
99107.915403794060694
99102.020032558139064
99079.416236587290769
99046.786988105828641
99013.705899932785542
98988.724504530080594
98975.418689969650586
98973.880104157229653
98983.054182146370295
99001.178636534546968
99189.377330385890673
99195.796754629976931
99207.305817585409386
99222.578814514185069
99239.376851610606536
99256.167987854583771
99271.628029978906852
99285.431453110053553
99296.715954843326472
99303.996029039379209
99305.844636500783963
99301.172094253517571
99290.30604956879688
99275.546784559817752
99260.643073175902828
99249.205651926575229
99242.736232077979366
99241.365666759942542
99242.855690005933866
99244.122112974015181
99243.381083642190788
99240.608834198181285
99238.14249713254685
99239.464497527704225
99247.152256644229055
99261.29972742839891
99278.930321412073681
99294.938666726549855
99304.679788620924228
99305.246237108585774
99296.763775441897451
99281.822724477446172
99264.079108749996522
99246.653206858638441
99232.15148822174524
99222.004895697173197
99217.091649017602322
99217.33866553552798
99221.548058082727948
99227.84494952057139
99232.405528068440617
99232.686733951763017
99228.41287882431061
99221.877110553061357
99217.555715494847391
99219.048330688805436
99227.294811764368205
99240.34678799129324
99254.333538506412879
99265.365414170970325
99271.590607370555517
99273.072466008772608
99271.190201082165004
99267.814562913539703
99263.893426895723678
99259.623486789743765
99254.706409127931693
99249.433276204712456
99244.413341315637808
99240.403251376352273
99238.283732991112629
99237.694807480438612
99236.745354819038766
99233.40429519439931
99226.137161808132078
99216.867947734863264
99208.663850051554618
99206.210352762369439
99212.321098169166362
99227.331710503000068
99248.224289824298467
99269.917507170379395
99287.35867797487299
99298.15012256623595
99302.519812318205368
99302.447413766378304
99299.897885600978043
99295.396534816725762
99287.800742732128128
99275.059685904125217
99256.303865630863584
99232.760432627328555
99207.782089428568725
99186.222729832254117
99172.925792425899999
99170.969408840624965
99181.201872021236341
99201.891691352226189
99228.886010533577064
99256.718947738641873
99280.083793285855791
99295.462662497040583
99301.250948024768149
99297.872459294900182
99287.448008452105569
99272.597409495545435
99255.722108259928063
99238.735021245331154
99222.85888564689958
99209.040895307683968
99198.395924986049067
99192.167895487495116
99191.429484119697008
99196.671371746735531
99207.406285247256164
99222.302811549569014
99239.168891246881685
99255.423076432125526
99268.524024579470279
99276.409439791648765
99277.92234002778423
99272.870865741540911
99262.464403117599431
99248.67179442376073
99233.393786578759318
99218.365195505131851
99205.055566523704329
99194.221443318834645
99186.249869493709411
99181.402690082264598
99179.89449404097104
99181.694734799923026
99186.275016215979122
99192.283523214311572
99197.68549297885329
99200.79374089713383
99200.402216474089073
99196.66030353232054
99190.719919880080852
99184.244060636716313
99178.542958444420947
99174.138863279775251
99170.447831843339372
99166.65854795431369
99162.111712086407351
99157.520063253541593
99154.491117730052792
99155.27392251350102
99161.600676247908268
99174.179625681077596
99191.673533789158682
99211.248658294643974
99229.218421383891837
99242.207669592651655
99248.106839323329041
99247.013271924501169
99240.700378999114037
99232.091674232869991
99224.528100874376833
99221.045548579349997
99223.715456016361713
99232.576039956999011
99247.076157468589372
99264.347722458784119
99281.460602152146748
99295.19896283352864
99303.117286117427284
99303.276243093161611
99295.574848952222965
99281.038836586420075
99261.467412386904471
99239.169465439088526
99216.924881481172633
99197.805524349445477
99184.335667085848399
99178.235092953560525
99180.630249442416243
99190.769800724156084
99206.423358112966525
99224.443986126658274
99241.34093360308907
99254.384670306462795
99261.689314597417251
99263.241543370095314
99260.001580271768034
99253.425942773974384
99245.153448143333662
99236.595884278853191
99228.682037256759941
99222.164582965822774
99217.805651333415881
99216.485056811827235
99218.777918002509978
99224.812039377560723
99233.995779388103983
99244.549953079593251
99254.075947975943564
99260.371702467949945
99261.840944007140934
99258.284188987541711
99251.07587137495284
99242.718812356863054
99236.157434598004329
99233.96095550514292
99237.551419723269646
99246.965162176755257
99260.719219538543257
99276.254829011915717
99290.773581699322676
99301.997533798479708
99308.659333818941377
99310.814087718114024
99309.790267428790685
99307.508826690856949
99306.011667011189274
99306.79398517262598
99310.591203013696941
99317.226228545841877
99325.905749943834962
99335.513715482709813
99344.912543109225226
99353.066052434136509
99359.403503064226243
99363.349699950762442
99364.909897694466054
99364.115768351824954
99361.069091343859327
99356.300299080045079
99350.643697107327171
99345.244189206918236
99341.535384805451031
99340.934334942619898
99344.483884164699703
99352.419575590494787
99364.255954898355412
99378.872334549523657
99394.632778833562043
99409.639174372612615
99422.02118316772976
99430.404927096882602
99433.786137441711617
99431.825596958005917
99424.732390698045492
99413.363882702789851
99399.045653451175895
99383.50474613904953
99368.422831054514972
99355.362339119601529
99345.45951011046418
99339.451509089383762
99337.539952423481736
99339.410595820809249
99344.40318564538029
99351.532220658817096
99359.919574120649486
99368.697943764258525
99377.166351639025379
99384.916264925981523
99391.579795556623139
99397.033648365308181
99401.262988904039958
99404.272118340333691
99406.243547696125461
99407.242046442974242
99407.178577463884722
99406.139024171439814
99226.662909246384515
99060.487959228630643
99277.453108568530297
99333.610883223023848
99142.351567150515621
99089.832245699013583
99170.34238723287126
99174.040240321002784