/*--------------------------------*- C++ -*----------------------------------*\
  =========                 |
  \\      /  F ield         | OpenFOAM: The Open Source CFD Toolbox
   \\    /   O peration     | Website:  https://openfoam.org
    \\  /    A nd           | Version:  12
     \\/     M anipulation  |
\*---------------------------------------------------------------------------*/
FoamFile
{
    format      ascii;
    class       volScalarField;
    location    "0.016";
    object      pMean;
}
// * * * * * * * * * * * * * * * * * * * * * * * * * * * * * * * * * * * * * //

dimensions      [1 -1 -2 0 0 0 0];

internalField   nonuniform List<scalar> 
75962
(
99700.122243035206338
99700.692878905596444
99700.420299273406272
99700.258013071477762
99700.197776383472956
99700.048776043782709
99699.824908497510478
99699.556661639362574
99699.260426737688249
99698.93150124308886
99698.566415279186913
99698.176031459486694
99697.759343937941594
99697.298628245800501
99696.807216425935621
99696.319939276610967
99695.84863263607258
99695.379421114106663
99694.895327178368461
99694.387718092693831
99693.858961645280942
99693.320936595002422
99692.792524041389697
99692.282597032506601
99691.78221922989178
99691.281713958494947
99690.786514912353596
99690.301731224579271
99689.821717867074767
99689.344043960096315
99688.86657616130833
99688.384342274744995
99687.897515712742461
99687.414884599362267
99686.943952997840825
99686.482461303923628
99686.024761160369962
99685.570342287071981
99685.120453659037594
99684.677050824233447
99684.240193462392199
99683.810347945269314
99683.384746982221259
99682.961287509460817
99682.538846619616379
99682.119389397121267
99681.707152640563436
99681.305115959228715
99680.912880928153754
99680.524457050836645
99680.133164798869984
99679.738884675098234
99679.345476666305331
99678.955718228840851
99678.570011301097111
99678.188172109250445
99677.809651353833033
99677.436038344952976
99677.07168139674468
99676.721483046392677
99676.384758407744812
99676.054497104138136
99675.722009318837081
99675.384080908377655
99675.0446701078763
99674.710735252316226
99674.384260063394322
99674.061383719599689
99673.736486170630087
99673.407801044915686
99673.07866721865139
99672.753215230390197
99672.432231520186178
99672.112169737243676
99671.790447695093462
99671.469397908396786
99671.155243084751419
99670.852513402962359
99670.560608587577008
99670.274811800118187
99669.990018728582072
99669.703204759134678
99669.413580571563216
99669.123057017306564
99668.834871455241228
99668.55192848763545
99668.27361380912771
99667.996204003778985
99667.715961591718951
99667.433021950346301
99667.150193627268891
99666.869954459587461
99666.59312299976591
99666.320538007450523
99666.054283092962578
99665.796577518194681
99665.546793122353847
99665.300859979644883
99665.05321077950066
99664.799883602187037
99664.541322284509079
99664.280578578676796
99664.020043851633091
99663.759366466023494
99663.497231743385782
99663.233551225421252
99662.971092494510231
99662.713816088144085
99662.463830753273214
99662.220087094872724
99661.977929585860693
99661.732307869184297
99661.480706733869738
99661.224552926782053
99660.966604211222148
99660.708335612507653
99660.449157711933367
99660.188474579481408
99659.92766067138291
99659.669989024172537
99659.418065480349469
99659.171769818043686
99658.929362250681152
99658.689090653439052
99658.450192116535618
99658.212998433300527
99657.977886996217421
99657.744237711143796
99657.510589015888399
99657.275629752344685
99657.038796863300377
99656.800739478640025
99656.562959255184978
99656.327328050450888
99656.094768251394271
99655.864116793076391
99655.632533908326877
99655.397449821670307
99655.158587655314477
99654.919021914887708
99654.683879465810605
99654.457464687468018
99654.24087085328938
99654.031409179136972
99653.824277976047597
99653.614703693121555
99653.399681793584023
99653.17866505474376
99652.953325564551051
99652.726953538018279
99652.502878888219129
99652.283789356530178
99652.0708578232734
99651.863689846621128
99651.661047381116077
99651.46088295460504
99651.260459463941515
99651.057180546456948
99650.849490330656408
99650.637001959883492
99650.421077778679319
99650.204180048443959
99649.988981047208654
99649.777543898773729
99649.571666794494377
99649.372337195367436
99649.179108763419208
99648.99008663459972
99648.802609642065363
99648.614156724986969
99648.42344674791093
99648.230540129996371
99648.036316837577033
99647.841588893308653
99647.646597278566333
99647.450716272229329
99647.252766110614175
99647.051819664266077
99646.847748489468358
99646.641876937967027
99646.436626122798771
99646.234912244093721
99646.038836214516778
99645.848609924491029
99645.662937875036732
99645.479642887105001
99645.296430420203251
99645.11160798673518
99637.719305673061172
99637.54173059418099
99637.361447251503705
99637.178420389129315
99636.993416501049069
99636.807462819997454
99636.621225062161102
99636.434653047457687
99636.247242186655058
99636.058597939714673
99635.868904373070109
99635.679067022545496
99635.49043814696779
99635.304065254764282
99635.12011557490041
99634.937723076494876
99634.75570799340494
99634.573264393868158
99634.390170866565313
99634.207064979927964
99634.025019017193699
99633.844654861604795
99633.665821778718964
99633.487483514720225
99633.308003342186566
99633.125790429970948
99632.939895844829152
99632.750187699479284
99632.557288085226901
99632.362617585647968
99632.16807074395183
99631.975475804443704
99631.786208010089467
99631.600942632459919
99631.419659897568636
99631.24164467882656
99631.065753888557083
99630.890545093381661
99630.714793131832266
99630.537721645974671
99630.359214423500816
99630.179652995007928
99629.999585645622574
99629.819401618005941
99629.63914460450178
99629.458464641895262
99629.277033410573495
99629.094857404692448
99628.912162255568546
99628.729309448550339
99628.546631301054731
99628.364383637075662
99628.182730640197406
99628.001812100032112
99627.821860042706248
99627.643076058768202
99627.465533463531756
99627.289118824934121
99627.11339670891175
99626.937786845868686
99626.761748543009162
99626.585005245462526
99626.407773075668956
99626.230781771431793
99626.055028595903423
99625.881204372926732
99625.70924314892909
99625.538363377083442
99625.367312336937175
99625.194725267996546
99625.019653223556816
99624.841974226394086
99624.662297123431927
99624.481397261319216
99624.299966885606409
99624.118425623324583
99623.936917874350911
99623.755662585419486
99623.575117425178178
99623.396095609437907
99623.219618192422786
99623.046581728107412
99622.877390493405983
99622.711608879719279
99622.547986835226766
99622.384619920427212
99622.21940205807914
99622.050566491787322
99621.877074416261166
99621.69885858487396
99621.516628945537377
99621.331811371957883
99621.146064632150228
99620.961050358164357
99620.778131459606811
99620.598243032058235
99620.421820271440083
99620.248922611935996
99620.079350316387718
99619.912700991655583
99619.748449210776016
99619.585965474921977
99619.424375078844605
99619.262729916590615
99619.100140022666892
99618.93579696911911
99618.769149414656567
99618.600005954795051
99618.428595777746523
99618.255452306693769
99618.081349897416658
99617.907181749411393
99617.733879550505662
99617.562221893444075
99617.392716123737046
99617.225569939706475
99617.060739562439267
99616.897906366066309
99616.736562967023929
99616.575996118292096
99616.41544352719211
99616.254100931735593
99616.091290803291486
99615.926686150734895
99615.760263026182656
99615.592423479625722
99615.423749989044154
99615.254863459136686
99615.086282279196894
99614.91833306341141
99614.751207359426189
99614.584933168138377
99614.419442607919336
99614.254749472005642
99614.090765309985727
99613.927351330217789
99613.764204778985004
99613.600866295149899
99613.436684341111686
99613.271011634802562
99613.103400715641328
99612.933668651749031
99612.761945067381021
99612.588521995290648
99612.413771126011852
99612.238150829769438
99612.062118236804963
99611.885896033520112
99611.709457026649034
99611.532603644329356
99611.355144688059227
99611.176762409377261
99610.997260978081613
99610.816428553807782
99610.634210989213898
99610.450564732484054
99610.265660107805161
99610.079687992256368
99609.893077099273796
99609.70647321389697
99609.520491796880378
99609.33569026015175
99609.152433729686891
99608.970784572622506
99608.790394024181296
99608.610542161710327
99608.430360331447446
99608.249060493748402
99608.066015442484058
99607.880870078341104
99607.693621538492152
99607.504584177848301
99607.314248772672727
99607.123149265709799
99606.931737686390989
99606.740451030389522
99606.549546814538189
99606.359258476804825
99606.16971856028249
99605.980960599685204
99605.79291600047145
99605.605333672327106
99605.417903338660835
99605.230317404886591
99605.042306233153795
99604.853749407629948
99604.664707799383905
99604.475529822797398
99604.286725689627929
99604.098710941776517
99603.911622535408242
99603.725199792213971
99603.538905070177861
99603.351953830890125
99603.163471320716781
99602.972740695098764
99602.779351759134443
99602.583253656994202
99602.384843709631241
99602.184794094981044
99601.983900350431213
99601.782949441694655
99601.582547304453328
99601.383001476191566
99601.184306237482815
99600.986260379402665
99600.788607622584095
99600.591203302959912
99600.394014483637875
99600.197139149153372
99600.000794160499936
99599.805314325974905
99599.61101050664729
99599.41813788030413
99599.226889221346937
99599.03735826825141
99598.849539501272375
99598.663448608393082
99598.479141012925538
99598.296751044559642
99598.116364805595367
99597.938051485340111
99597.761845047440147
99597.587737565452699
99597.415642283449415
99597.245499674187158
99597.077287351261475
99596.911137583767413
99596.747351750556845
99596.586450639384566
99596.429117038132972
99596.276185357666691
99596.128511614588206
99595.986880986965843
99595.852001772436779
99595.724395860146615
99595.60446302490891
99595.492390074912691
99595.388242457076558
99595.291986024065409
99595.203572337384685
99595.123066273983568
99595.050603111201781
99594.98643558769254
99594.931011357752141
99594.885000417707488
99594.849239577306435
99594.824629073715187
99594.81210235839535
99594.81256311906327
99594.826820320464321
99594.855628963239724
99594.899683939191164
99594.959574024935137
99701.143586250997032
99701.309250942140352
99700.270431204422493
99700.152530399514944
99700.149065502060694
99699.976930796678062
99699.754590222451952
99699.506791238760343
99699.216001917244284
99698.881814249005402
99698.50552411309036
99698.11021278136468
99697.701069384187576
99697.255834645606228
99696.775780789015698
99696.294746667801519
99695.828126138134394
99695.358334141143132
99694.871969159779837
99694.368622653812054
99693.847972445932101
99693.315534116074559
99692.789676068990957
99692.285985221373267
99691.795140397385694
99691.302068018922
99690.811957882164279
99690.331823839966091
99689.857828392166994
99689.384248531336198
99688.907320866303053
99688.422436463210033
99687.930571354343556
99687.441854359945864
99686.96461080168956
99686.497661844288814
99686.036089839893975
99685.579418196997722
99685.12961770495167
99684.688265895543736
99684.257832948133
99683.836782501995913
99683.418458231244585
99682.996367949977866
99682.569112488010433
99682.141828400664963
99681.72358139436983
99681.317896600536187
99680.920714891602984
99680.526596385563607
99680.132275365293026
99679.738716254956671
99679.348683955264278
99678.964377419964876
99678.586150929084397
99678.211783065766213
99677.838824037084123
99677.468019057880156
99677.105191907205153
99676.755842190206749
99676.419490948072053
99676.089310611525434
99675.75701528506761
99675.418101863921038
99675.074860341264866
99674.734415253304178
99674.401836142307729
99674.074144982558209
99673.744654193142196
99673.410726547503145
99673.07613007616601
99672.746484666495235
99672.423787924693897
99672.105090427881805
99671.786704536571051
99671.469344541110331
99671.157839284554939
99670.855710118834395
99670.56255230687384
99670.274213017502916
99669.98675826805993
99669.698673337596119
99669.410011874744669
99669.121817773455405
99668.835894483519951
99668.55388348006818
99668.274744113514316
99667.995011120947311
99667.712533011232154
99667.427736891550012
99667.143739946986898
99666.863248662659316
99666.587648359753075
99666.318292718584416
99666.056445239402819
99665.802541619515978
99665.554904403892579
99665.309285736060701
99665.061000927365967
99664.806761635263683
99664.546694164819201
99664.284717847025604
99664.024667473669979
99663.766782350809081
99663.508394981516176
99663.247710474199266
99662.986900174146285
99662.730660881992662
99662.481767280274653
99662.238401578550111
99661.995246349048102
99661.746952217479702
99661.492269858688815
99661.233877419814235
99660.975371936816373
99660.717809659632621
99660.46011673900648
99660.200480213286937
99659.938847648416413
99659.677888566060574
99659.420781996988808
99659.168768815725343
99658.921445405692793
99658.677546766557498
99658.436295725769014
99658.196954117229325
99657.959224633843405
99657.722537209978327
99657.48611945459561
99657.249505786006921
99657.012602229544427
99656.775888368661981
99656.540294117687154
99656.306190745875938
99656.073221815473516
99655.839991621556692
99655.60434997054108
99655.364770348722232
99655.121866491841502
99654.879186741178273
99654.642156064175651
99654.414692823862424
99654.197503192961449
99653.987698903831188
99653.780425155113335
99653.570850202348083
99653.356076096810284
99653.135835616791155
99652.911725759404362
99652.686605567592778
99652.463488350840635
99652.244564810942393
99652.030934995549615
99651.822781995739206
99651.619552217991441
99651.4198311430373
99651.221312652778579
99651.021174614084885
99650.816936575429281
99650.607168240865576
99650.392508833261672
99650.175395076686982
99649.959068174168351
99649.746770214362186
99649.541173146382789
99649.343433463014662
99649.152579617802985
99648.965829167049378
99648.779836870264262
99648.591845982853556
99648.400582475995179
99648.206411149236374
99648.010829020553501
99647.814925880360533
99647.619025754538598
99647.422778190928511
99647.225122460993589
99647.024862310456228
99646.821382610098226
99646.615521459345473
99646.409510097437305
99646.206497650448
99646.008843217350659
99645.817100264306646
99645.630193291450269
99645.44622598902788
99645.263043781975284
99645.078843188923202
99644.892376131756464
99637.835835033736657
99637.65929131496523
99637.48123622626008
99637.300699105020612
99637.117599464414525
99636.932413714632276
99636.745671073294943
99636.557873620171449
99636.369061181409052
99636.179197846300667
99635.988482906992431
99635.797425036478671
99635.6070200617105
99635.418492874567164
99635.232635874475818
99635.049328009408782
99634.867662426331663
99634.686486253616749
99634.505101732182084
99634.323345064389287
99634.141550827480387
99633.960438986148802
99633.780657231443911
99633.602138843227294
99633.423985310582793
99633.24472258768219
99633.062866584048606
99632.877616372061311
99632.689062808902236
99632.498108041530941
99632.306341342584346
99632.115369760853355
99631.926474669831805
99631.740406088429154
99631.557403269092902
99631.37732020491967
99631.199577077131835
99631.023122108177631
99630.846964094293071
99630.670143958734116
99630.492205093294615
99630.313203888028511
99630.133782791876001
99629.954602136553149
99629.775894671416609
99629.597366759931901
99629.418296081770677
99629.238038165232865
99629.056313341803616
99628.873394711466972
99628.68991066806484
99628.506543762836372
99628.323888518440071
99628.142252933190321
99627.961711079973611
99627.782272827855195
99627.60404311279126
99627.427067055425141
99627.251165448702523
99627.076009082826204
99626.901090012121131
99626.725945721103926
99626.550316323206061
99626.374379664935987
99626.198834593567881
99626.024525881541194
99625.851961070715333
99625.681007242223131
99625.510732075956184
99625.339805922310916
99625.166954620901379
99624.991308949669474
99624.812875069241272
99624.632424874711432
99624.450930304825306
99624.269128504136461
99624.087431941617979
99623.906066880110302
99623.725340496355784
99623.545825099688955
99623.368394871853525
99623.193987135178759
99623.023271944577573
99622.856342095052241
99622.692470423760824
99622.530170000056387
99622.367544691325747
99622.202736787570757
99622.034305571491132
99621.861508439600584
99621.684482790296897
99621.504003183785244
99621.321369494049577
99621.138130515639205
99620.955692414514488
99620.775221695046639
99620.597390243870905
99620.422547135007335
99620.250744576900615
99620.081893466995098
99619.915793278676574
99619.752005409929552
99619.58989845191536
99619.428678278680309
99619.267421193551854
99619.105217035714304
99618.941338811695459
99618.775413909068448
99618.607414702899405
99618.437711120786844
99618.266845970705617
99618.095551066639018
99617.924621857280727
99617.754840100926231
99617.586854408189538
99617.420975212779013
99617.257236776466016
99617.095470037806081
99616.935301177640213
99616.776294178634998
99616.617837760335533
99616.459299447917147
99616.300058375840308
99616.139608421857702
99615.977767123753438
99615.814614806935424
99615.650516599693219
99615.486034662011662
99615.321734928918886
99615.158051660386263
99614.995234455273021
99614.833254093755386
99614.672028289001901
99614.511540468782187
99614.351854238455417
99614.192952122975839
99614.034671459477977
99613.876661867441726
99613.718368121786625
99613.559007503703469
99613.397858218027977
99613.234412220059312
99613.06851011836261
99612.90034737525275
99612.730413060475257
99612.559400657672086
99612.388073102323688
99612.217014812282287
99612.046450827154331
99611.876294971109019
99611.706233474324108
99611.535724324610783
99611.364200626790989
99611.191159221460111
99611.016423316366854
99610.839927666937001
99610.661932371425792
99610.482828261243412
99610.30320897870115
99610.123847117196419
99609.945537398059969
99609.768920611182693
99609.594445169350365
99609.422255411511287
99609.252047933259746
99609.083201892251964
99608.914835256233346
99608.745895075335284
99608.575458781269845
99608.402889645847608
99608.227971910397173
99608.050936437866767
99607.872315665183123
99607.692774166251183
99607.512901136651635
99607.333247938906425
99607.154214193738881
99606.975947779457783
99606.798549819635809
99606.622048778037424
99606.446403495065169
99606.271438957744977
99606.096844301340752
99605.922251151205273
99605.747294600630994
99605.571688292809995
99605.395388066914165
99605.218607937902561
99605.041831307244138
99604.86565543890174
99604.690552050829865
99604.516666740484652
99604.343849516313639
99604.171683590931934
99603.999472704963409
99603.82644435435941
99603.651887364932918
99603.475370514628594
99603.296876256572432
99603.116808151331497
99602.935860525714816
99602.754774258894031
99602.574201231531333
99602.394656316173496
99602.21636259079969
99602.039288831059821
99601.863257175325998
99601.688035682760528
99601.513449244899675
99601.339483315736288
99601.166265299470979
99600.994041332611232
99600.82312466071744
99600.653837341509643
99600.486450216427329
99600.321233585345908
99600.158418397928472
99599.998198300178046
99599.840718850740814
99599.686054809237248
99599.534233837708598
99599.385220075651887
99599.238867925028899
99599.094976881358889
99598.953344778652536
99598.813855680331471
99598.676521161221899
99598.541475496895146
99598.409017539088381
99598.279597374377772
99598.153857102268375
99598.032569797826
99597.916593447633204
99597.806806870197761
99597.703976346281706
99597.608750267550931
99597.521607513292111
99597.442828741201083
99597.37256307573989
99597.310857393706101
99597.257720421679551
99597.213175980054075
99597.177306110097561
99597.150246055578464
99597.132191505996161
99597.123507939613773
99597.124785161853652
99597.136705200347933
99597.1600531055592
99597.195650264882715
99597.244337879033992
99597.306914905057056
99597.384125321739702
99597.476606993383029
99597.58492184986244
99698.540852652542526
99699.666498319653329
99699.505824745356222
99699.488538108082139
99699.553941330887028
99699.49367742978211
99699.329304614599096
99699.123271406439017
99698.904113135329681
99698.64440672188357
99698.31493619151297
99697.935547865869012
99697.529672513192054
99697.102076665338245
99696.652022122114431
99696.197327111716731
99695.744258684266242
99695.274712910744711
99694.787322224932723
99694.2983618711296
99693.802124947818811
99693.285849456864526
99692.765969572312315
99692.265794705861481
99691.779618056520121
99691.291442526548053
99690.806066664474201
99690.336500178600545
99689.881961463834159
99689.430877422448248
99688.972701830367441
99688.500020127670723
99688.013133732732967
99687.519322930573253
99687.028749863107805
99686.546645475624246
99686.075570024069748
99685.615774563033483
99685.165377951430855
99684.721796499899938
99684.287153302328079
99683.863835179756279
99683.448684292772668
99683.033442693762481
99682.613046569211292
99682.19025409144524
99681.772383141855244
99681.363319478798076
99680.962704758028849
99680.567901592265116
99680.178747649551951
99679.795711648504948
99679.41688708923175
99679.040032749428065
99678.664825220475905
99678.290414331189822
99677.915890710108215
99677.542149349814281
99677.174277566795354
99676.817657416366274
99676.473808206748799
99676.138643897153088
99675.805123572528828
99675.467159543186426
99675.124382601192337
99674.78195067337947
99674.446543290192494
99674.117789434239967
99673.789009537562379
99673.455708883542684
99673.120104678397183
99672.78790833002131
99672.462692136832629
99672.143037468311377
99671.825481991807465
99671.508266140706837
99671.193263382898294
99670.8836643321265
99670.58127750037238
99670.284787867727573
99669.992490983699099
99669.702752919969498
99669.415231365856016
99669.130040119984187
99668.84807826935139
99668.569536600145511
99668.293270237758406
99668.016587493970292
99667.738212462892989
99667.458427068937453
99667.178920610735076
99666.90141536592273
99666.627914588883868
99666.359900524257682
99666.097684622742236
99665.840984306763858
99665.588266886610654
99665.336999859748175
99665.083393588021863
99664.825344362747273
99664.564064358288306
99664.303246147028403
99664.045625371058122
99663.790259727233206
99663.533674046033411
99663.274457547129714
99663.015150341016124
99662.760535334004089
99662.512926087525557
99662.269642422732431
99662.025220908777555
99661.774728841002798
99661.51740535281715
99661.256313478588709
99660.995414468590752
99660.73645847971784
99660.478477310200105
99660.219391122009256
99659.958575752316392
99659.697215862208395
99659.437447769058053
99659.181239216122776
99658.929096591382404
99658.680034397897543
99658.432891897682566
99658.186957922967849
99657.942854894266929
99657.701386839849874
99657.462837612911244
99657.226751795620658
99656.992237463753554
99656.758654391465825
99656.525458866599365
99656.292002779315226
99656.057137610667269
99655.81900956510799
99655.576753897330491
99655.331483509900863
99655.085713331951411
99654.842867258004844
99654.606972256166046
99654.380396344058681
99654.162840069431695
99653.95170622941805
99653.742812410753686
99653.532340496283723
99653.317736783268629
99653.098635193382506
99652.876076667118468
99652.652337535939296
99652.429647945216857
99652.209456155876978
99651.993003820549347
99651.781273923639674
99651.575019653362688
99651.374046404627734
99651.176751397215412
99650.979917182499776
99650.780173267208738
99650.575212367082713
99650.36467682296643
99650.150553683561157
99649.936284059614991
99649.725675431283889
99649.521720739125158
99649.325601276825182
99649.135896464518737
99648.949495013279375
99648.763103854260407
99648.574085071595619
99648.381319145672023
99648.18503306931234
99647.986662160619744
99647.787810678870301
99647.589424022633466
99647.391515441107913
99647.193096159404377
99646.992951184918638
99646.7902846718207
99646.585415891939192
99646.380283679871354
99646.177874924906064
99645.980357429216383
99645.788493194399052
99645.60154696959944
99645.417800806098967
99645.235314521574765
99645.052364584291354
99644.867442125148955
99637.775212347449269
99637.596256182529032
99637.416417586457101
99637.234790105183492
99637.050931265577674
99636.864776194270235
99636.676531524892198
99636.48653740422742
99636.295307175183552
99636.103300619317451
99635.911307497808593
99635.720217414418585
99635.530927814514143
99635.344078653870383
99635.159789626195561
99634.977615506737493
99634.796757357296883
99634.61646486754762
99634.435962739444221
99634.255065890523838
99634.074118278178503
99633.893700234111748
99633.714110113200149
99633.535064008625341
99633.355796732677845
99633.175177161057945
99632.992218356535886
99632.806462465043296
99632.618396292396937
99632.429318261056324
99632.240824820968555
99632.054161797772394
99631.870010488957632
99631.688539358350681
99631.509425814409042
99631.332015703461366
99631.155539353363565
99630.979124704565038
99630.801933064460172
99630.623532055105898
99630.443940244455007
99630.263898644290748
99630.084235065311077
99629.905630228618975
99629.728099607833428
99629.551079161145026
99629.373659125660197
99629.194905624201056
99629.01434378697013
99628.832061735956813
99628.648708908905974
99628.46515236144478
99628.282222825378994
99628.100452173879603
99627.920081131203915
99627.74112710938789
99627.563564961223165
99627.387315652609686
99627.212231223165873
99627.038049774710089
99626.864373390984838
99626.690760599187342
99626.516984574132948
99626.343268751734286
99626.170139232213842
99625.998174940934405
99625.827564229010022
99625.657890997841605
99625.48811212759756
99625.316887450841023
99625.143137524588383
99624.966331880539656
99624.786688626685645
99624.605046598109766
99624.422468346121605
99624.239863986382261
99624.057880246968125
99623.876972710422706
99623.697419350908604
99623.519730098443688
99623.344600987402373
99623.172786126335268
99623.004603863097145
99622.83978857913462
99622.677441968320636
99622.516089875542093
99622.353992304371786
99622.189618337186403
99622.021821609843755
99621.850082772682072
99621.674674790294375
99621.496412509470247
99621.316482292560977
99621.136201354311197
99620.956653218701831
99620.778694366337731
99620.60293511072814
99620.429702867506421
99620.259060079450137
99620.090946386320866
99619.925155465243733
99619.76143108328688
99619.599394132819725
99619.43836436298443
99619.277493021392729
99619.115881280726171
99618.952871897054138
99618.788094613875728
99618.621619040510268
99618.453848528763046
99618.285423484063358
99618.117091828418779
99617.949640519786044
99617.783785501349485
99617.619953411267488
99617.458242004533531
99617.298544663397479
99617.140500114328461
99616.983675606606994
99616.827577680640388
99616.67164565504936
99616.51538785356388
99616.358401575766038
99616.200478650673176
99616.0415955081844
99615.881924221728696
99615.721993334227591
99615.562324489961611
99615.403334483664366
99615.245111503259977
99615.087497521657497
99614.930341646191664
99614.773666007487918
99614.617555944583728
99614.462125138379633
99614.30755610462802
99614.153783952788217
99614.000419117262936
99613.846825351720327
99613.692109785290086
99613.535389515105635
99613.376070851270924
99613.213994371239096
99613.049558744372916
99612.883523551165126
99612.716868492701906
99612.550484627485275
99612.384965343590011
99612.22050553454028
99612.056959074994666
99611.893890573031968
99611.730470653434168
99611.565912252815906
99611.399711987309274
99611.231599963648478
99611.061745811923174
99610.890584509936161
99610.718842182381195
99610.547387965125381
99610.377093669143505
99610.208667451122892
99610.04264332204184
99609.879285368020646
99609.718453700217651
99609.559629419192788
99609.401972787629347
99609.244551002950175
99609.086368348929682
99608.926599499114673
99608.764714897071826
99608.600655352085596
99608.434771774351248
99608.267725695695844
99608.100242588392575
99607.932937541641877
99607.766281302639982
99607.600507986659068
99607.435695287495037
99607.271823777715326
99607.108860530584934
99606.946709815485519
99606.785100119857816
99606.623704451892991
99606.462196974025574
99606.300224417485879
99606.137494961440098
99605.973994364743703
99605.809975478507113
99605.645898639690131
99605.482423025241587
99605.320128541905433
99605.159337055447395
99605.000036035155063
99604.84189974142646
99604.684342790089431
99604.526703376308433
99604.368422635408933
99604.209163906954927
99604.048996701676515
99603.888263580403873
99603.727480085974094
99603.567252199485665
99603.408186402273714
99603.250714698500815
99603.094962831950397
99602.940848056096002
99602.78814562583284
99602.636641350924037
99602.486159708860214
99602.336620970818331
99602.188114342163317
99602.040855442552129
99601.895151200631517
99601.751312544249231
99601.609692423589877
99601.470726541025215
99601.334854839384207
99601.202479343570303
99601.073829870307236
99600.948964548180811
99600.827772836812073
99600.710092875437113
99600.59561178831791
99600.483966545798467
99600.374824738988536
99600.267966359810089
99600.163437983646872
99600.061513658991316
99599.962674016365781
99599.867557809790014
99599.776913045658148
99599.691644173537497
99599.612652451411122
99599.540701740479562
99599.476442351762671
99599.420488133022445
99599.373331573151518
99599.335282548912801
99599.306483588923584
99599.286969678825699
99599.276644782468793
99599.275459534459515
99599.283458256468293
99599.300760056459694
99599.327588698608452
99599.364342366330675
99599.411570798285538
99599.469854703056626
99599.539791474438971
99599.622018455716898
99599.717218891746597
99599.826119332545204
99599.949424942911719
99600.087800830384367
99600.241929874231573
99600.41249591729138
99699.279422002044157
99700.17524725466501
99699.896968598477542
99699.683407856631675
99699.628180427054758
99699.581067382416222
99699.42857382458169
99699.203152353016776