/*--------------------------------*- C++ -*----------------------------------*\
  =========                 |
  \\      /  F ield         | OpenFOAM: The Open Source CFD Toolbox
   \\    /   O peration     | Website:  https://openfoam.org
    \\  /    A nd           | Version:  12
     \\/     M anipulation  |
\*---------------------------------------------------------------------------*/
FoamFile
{
    format      ascii;
    class       volScalarField;
    location    "0.016";
    object      pPrime2Mean;
}
// * * * * * * * * * * * * * * * * * * * * * * * * * * * * * * * * * * * * * //

dimensions      [2 -2 -4 0 0 0 0];

internalField   nonuniform List<scalar> 
75962
(
1230902.4843692779541
1210156.6452102661133
1201639.9705429077148
1195982.4336395263672
1191756.0151977539062
1188277.1637172698975
1185107.5682239532471
1182076.6389102935791
1179174.9702606201172
1176390.8727569580078
1173698.0406379699707
1171054.5218906402588
1168476.3699626922607
1166022.1030254364014
1163732.319881439209
1161603.1826324462891
1159603.1792068481445
1157725.2364387512207
1155946.8069438934326
1154230.3723468780518
1152548.1602306365967
1150873.1844177246094
1149204.4307765960693
1147555.7919502258301
1145972.7413368225098
1144505.3410606384277
1143167.9662914276123
1141974.3185653686523
1140940.574743270874
1140043.4299964904785
1139249.0002422332764
1138539.5545177459717
1137890.1730728149414
1137266.7483749389648
1136638.5409812927246
1135993.7998180389404
1135328.899076461792
1134649.1106948852539
1133952.5752773284912
1133246.1675872802734
1132541.3325881958008
1131839.3318138122559
1131134.9154033660889
1130418.5839080810547
1129679.7390975952148
1128906.1413917541504
1128085.6738700866699
1127212.1336231231689
1126291.027982711792
1125330.9894123077393
1124335.5154933929443
1123305.5060214996338
1122236.8199024200439
1121126.2006683349609
1119984.1499004364014
1118822.6727561950684
1117650.2199840545654
1116475.0050563812256
1115299.9138603210449
1114129.3016014099121
1112976.1897926330566
1111858.4469108581543
1110787.5775089263916
1109756.4172973632812
1108745.7154235839844
1107738.5174121856689
1106726.7856369018555
1105713.5980739593506
1104705.8207817077637
1103701.8592262268066
1102694.3078861236572
1101673.2919311523438
1100628.735424041748
1099561.9728050231934
1098482.1799545288086
1097393.0103759765625
1096291.4434452056885
1095171.6132411956787
1094034.8453845977783
1092885.7968654632568
1091730.3670234680176
1090576.8613243103027
1089432.5020351409912
1088298.4769592285156
1087168.9550266265869
1086036.814302444458
1084901.6160507202148
1083773.2521934509277
1082664.6295356750488
1081584.0478706359863
1080530.9230861663818
1079499.3708000183105
1078483.9500179290771
1077483.3354358673096
1076500.9054565429688
1075540.5925998687744
1074603.1099376678467
1073684.9405212402344
1072784.5258350372314
1071899.6115589141846
1071024.9904651641846
1070155.5044116973877
1069289.6268939971924
1068428.0926914215088
1067569.3503475189209
1066709.8878078460693
1065842.7934589385986
1064958.9910678863525
1064050.7146377563477
1063115.1585826873779
1062155.275562286377
1061177.9335670471191
1060186.1004638671875
1059175.3701362609863
1058137.3826084136963
1057064.8256969451904
1055957.245189666748
1054817.3713150024414
1053644.5416030883789
1052434.4041156768799
1051182.9613170623779
1049890.9130821228027
1048565.5074424743652
1047215.660249710083
1045846.2787170410156
1044459.3895816802979
1043057.4962673187256
1041646.649076461792
1040234.2590961456299
1038826.6369609832764
1037430.7183704376221
1036054.7293891906738
1034705.3801002502441
1033385.7843132019043
1032094.9478206634521
1030832.2440166473389
1029600.2561511993408
1028403.5597305297852
1027246.3659420013428
1026128.9352359771729
1025045.973934173584
1023989.8071346282959
1022953.6280250549316
1021932.7417659759521
1020924.7382106781006
1019928.3365707397461
1018942.6549510955811
1017965.0002193450928
1016989.3851013183594
1016007.4476280212402
1015009.5765132904053
1013986.8921241760254
1012934.5638580322266
1011852.220703125
1010742.0195503234863
1009606.3227710723877
1008448.4526271820068
1007273.7762870788574
1006087.9246711730957
1004893.2608852386475
1003686.9730663299561
1002462.7641582489014
1001216.0014991760254
999948.19467735290527
998665.24884414672852
997371.50313949584961
996067.64059448242188
994753.38075637817383
993432.80999755859375
992115.16014671325684
990808.65779113769531
989514.38847732543945
988227.92482948303223
986945.79986572265625
985670.20149040222168
984408.60627746582031
983170.40980339050293
981962.59157180786133
980787.08037948608398
979641.13927459716797
978518.51218605041504
977412.08584594726562
976317.0562744140625
975234.16945838928223
974169.09962844848633
973127.58833885192871
972110.3912239074707
971112.9044189453125
935370.60926246643066
934485.88605880737305
933598.32393264770508
932704.35967063903809
931802.07980537414551
930892.37565231323242
929976.74018478393555
929054.21259880065918
928121.40731620788574
927175.42193222045898
926215.91508865356445
925245.30766487121582
924267.57029724121094
923286.59184074401855
922304.61296653747559
921320.77029228210449
920331.5009880065918
919332.33916854858398
918319.51347732543945
917290.8792724609375
916245.97534370422363
915185.25939178466797
914109.81308746337891
913021.67149925231934
911924.81271743774414
910824.57947158813477
909725.37019729614258
908628.82546043395996
907534.44600677490234
906442.19528007507324
905353.54692077636719
904270.81637573242188
903196.63571739196777
902134.10931015014648
901086.73297882080078
900057.56432723999023
899048.14400100708008
898057.02943229675293
897079.77850723266602
896110.39074516296387
895144.3330135345459
894181.00894546508789
893223.78534507751465
892277.45821189880371
891345.9676628112793
890430.35032272338867
889528.46989440917969
888636.16455841064453
887749.43222427368164
886867.14968490600586
885991.73015213012695
885127.82126808166504
884278.90451431274414
883444.47379302978516
882619.27325439453125
881794.70389175415039
880962.44537734985352
880118.18888664245605
879263.31036376953125
878403.49799537658691
877544.36646270751953
876687.47824096679688
875829.68382835388184
874965.64950180053711
874091.62128829956055
873207.31922721862793
872315.06692504882812
871418.0272102355957
870518.11420249938965
869615.64447212219238
868710.56980514526367
867803.37965393066406
866894.86692810058594
865984.72814750671387
865071.48748207092285
864153.45056533813477
863229.36150741577148
862298.85050392150879
861362.2349796295166
860420.57566833496094
859475.02187538146973
858525.38970565795898
857569.18255043029785
856602.08511543273926
855620.38325119018555
854623.05968856811523
853612.72271919250488
852594.6042594909668
851574.10147857666016
850553.82915115356445
849532.14161682128906
848505.29686164855957
847470.9311637878418
846430.41841888427734
845387.98113059997559
844347.93485450744629
843311.81246757507324
842277.34823989868164
841240.2756290435791
840197.4351978302002
839149.26760292053223
838099.85488128662109
837054.88441276550293
836019.81877708435059
834998.45639610290527
833991.79706192016602
832998.38575553894043
832015.6314697265625
831041.31267547607422
830073.9138011932373
829112.43263053894043
828156.63078498840332
827207.75469970703125
826268.06868743896484
825339.25359344482422
824421.07344436645508
823511.55827522277832
822608.73835945129395
821712.49118614196777
820824.72258377075195
819947.80704116821289
819082.85400009155273
818229.27484703063965
817385.89608764648438
816551.65601539611816
815725.36966323852539
814905.15729522705078
814088.03269577026367
813270.58497047424316
812450.26523971557617
811626.75596809387207
810802.20479393005371
809979.57140350341797
809160.36397743225098
808343.03441619873047
807523.67217063903809
806697.54957580566406
805860.52167510986328
805009.35089492797852
804142.00390434265137
803258.13409042358398
802359.60778617858887
801450.49697494506836
800535.96757125854492
799620.54598999023438
798706.45272636413574
797793.39384078979492
796879.37008285522461
795962.32404136657715
795040.8461742401123
794113.76029586791992
793179.42107009887695
792235.84140205383301
791281.79233360290527
790318.15350532531738
789348.01284408569336
788375.08173942565918
787402.48074150085449
786432.32615661621094
785466.47768974304199
784507.05935668945312
783556.42818260192871
782615.90406608581543
781684.9328556060791
780761.05244255065918
779841.4850902557373
778924.66207885742188
778010.75653839111328
777101.25281143188477
776198.07099914550781
775303.01725387573242
774417.6804370880127
773543.5678653717041
772681.98203659057617
771833.60161399841309
770998.21422576904297
770174.52169036865234
769360.81817817687988
768555.62087821960449
767758.27373695373535
766969.02133941650391
766188.54217720031738
765417.21770095825195
764654.51770210266113
763898.72209739685059
763147.09106636047363
762396.55828666687012
761644.70219802856445
760890.59767913818359
760135.13446617126465
759380.28633689880371
758627.66132926940918
757877.50224685668945
757128.98722648620605
756381.47088623046875
755635.54188346862793
754892.99038887023926
754155.70816230773926
753424.35026168823242
752697.61098098754883
751972.55971527099609
751245.76026725769043
750514.48509979248047
749777.57752418518066
749035.63285827636719
748290.35909271240234
747543.52661323547363
746795.92761993408203
746046.8083553314209
745293.86806297302246
744533.8886547088623
743763.79500389099121
742981.85496139526367
742188.38010406494141
741385.33158111572266
740574.92993927001953
739758.19410705566406
738934.56955718994141
738102.56022071838379
737260.93865394592285
736409.53707695007324
735549.61870384216309
734683.93879127502441
733816.46632194519043
732951.65565872192383
732093.30527114868164
731243.4112606048584
730401.74859428405762
729566.06049156188965
728732.65676116943359
727897.60118865966797
727058.28315353393555
726214.66454124450684
725369.54073905944824
724527.45412063598633
723692.72801399230957
722867.74875450134277
722052.2650032043457
721244.04814910888672
720440.24014854431152
719638.5396785736084
718837.98349380493164
718039.16733360290527
717244.08725166320801
716455.49337005615234
715675.8796329498291
714906.63002014160156
714147.67570495605469
713397.89596366882324
712655.80681800842285
711920.05306816101074
711189.59472465515137
710463.83163642883301
709742.56086158752441
1241560.301290512085
1217379.2496509552002
1207360.365873336792
1200119.2495212554932
1194652.9034938812256
1190334.2427940368652
1186698.4517555236816
1183495.427339553833
1180514.5523300170898
1177612.8084926605225
1174743.963321685791
1171929.7774887084961
1169184.3348331451416
1166541.578296661377
1164036.2181949615479
1161689.8751220703125
1159505.5977649688721
1157485.7602729797363
1155646.7836170196533
1153959.9696025848389
1152372.9578075408936
1150833.2606067657471
1149300.6195278167725
1147757.5592803955078
1146217.3867168426514
1144714.389347076416
1143271.2867984771729
1141904.8622913360596
1140662.8921413421631
1139576.7613792419434
1138650.3091259002686
1137878.2350940704346
1137237.927095413208
1136681.484842300415
1136162.0839214324951
1135645.7162704467773
1135109.1607799530029
1134533.5651264190674
1133906.5576496124268
1133226.4345149993896
1132499.5686550140381
1131734.1383037567139
1130939.3062019348145
1130123.7690315246582
1129288.4240245819092
1128426.5277843475342
1127532.3277072906494
1126603.5365524291992
1125640.9149169921875
1124647.9909782409668
1123625.2694988250732
1122569.6751937866211
1121482.3467826843262
1120362.9495830535889
1119214.5684795379639
1118042.5740871429443
1116854.7469863891602
1115656.3253936767578
1114452.2149715423584
1113252.9034976959229
1112076.8801097869873
1110949.0498371124268
1109885.142448425293
1108880.7306632995605
1107918.6376037597656
1106978.3489227294922
1106046.4614791870117
1105119.6596374511719
1104199.6932373046875
1103282.4479370117188
1102355.9532661437988
1101401.7115726470947
1100408.629056930542
1099382.9481372833252
1098338.9764194488525
1097284.2429504394531
1096214.7043437957764
1095122.5605354309082
1094005.1285095214844
1092867.663402557373
1091718.8133716583252
1090568.6514091491699
1089427.6066036224365
1088299.3409118652344
1087176.6358852386475
1086049.6040115356445
1084918.527156829834
1083795.9988861083984
1082696.9443798065186
1081629.1000289916992
1080591.1177539825439
1079574.9470500946045
1078572.4046440124512
1077579.8750133514404
1076600.1881465911865
1075639.4937324523926
1074700.9162216186523
1073783.1667671203613
1072883.7477569580078
1071998.1004066467285
1071118.2262268066406
1070235.66064453125
1069349.0736045837402
1068462.5179100036621
1067578.8828868865967
1066696.2160892486572
1065807.4488582611084
1064903.4021854400635
1063977.4792327880859
1063028.6103782653809
1062061.0418529510498
1061079.2426567077637
1060082.3028354644775
1059062.7307872772217
1058012.0148410797119
1056927.4973621368408
1055813.540584564209
1054674.2082653045654
1053505.939453125
1052300.9825038909912
1051053.3715801239014
1049763.8015174865723
1048439.2101402282715
1047088.4533920288086
1045717.850700378418
1044329.7155017852783
1042924.8379974365234
1041506.9224891662598
1040082.2477359771729
1038658.0731735229492
1037243.095853805542
1035845.4330902099609
1034471.884708404541
1033125.4616355895996
1031806.4608573913574
1030517.3077697753906
1029262.8962574005127
1028047.833833694458
1026873.3545360565186
1025736.9743537902832
1024632.280574798584
1023552.4880676269531
1022493.2875728607178
1021451.4649124145508
1020422.9036254882812
1019404.6239719390869
1018396.3015918731689
1017397.760856628418
1016405.3816089630127
1015411.6844387054443
1014407.1601543426514
1013383.0437431335449
1012334.5924663543701
1011261.4477977752686
1010164.366756439209
1009043.1506023406982
1007899.6223621368408
1006739.680591583252
1005571.2217807769775
1004399.0293731689453
1003220.9209327697754
1002029.6045188903809
1000818.918924331665
999588.22151565551758
998340.87038612365723
997080.06367874145508
995807.11733818054199
994522.25913047790527
993228.74831390380859
991933.54210662841797
990643.13751029968262
989359.47014999389648
988081.33517265319824
986807.93971824645996
985542.25160217285156
984290.22463989257812
983058.72627449035645
981853.54609870910645
980677.42792129516602
979528.9442253112793
978403.10348320007324
977293.69174575805664
976195.81550025939941
975108.94489860534668
974037.79615020751953
972988.20328712463379
971962.01714134216309
970955.69939613342285
969963.52089881896973
936242.48784255981445
935353.18612289428711
934465.72837066650391
933575.91928672790527
932679.69611167907715
931775.64392471313477
930865.30058288574219
929950.6820182800293
929030.6457462310791
928100.78226661682129
927157.16909980773926
926198.88664436340332
925228.99174880981445
924253.23143768310547
923276.50603294372559
922300.63959884643555
921323.26952743530273
920338.90984535217285
919342.20972633361816
918329.47698402404785
917299.66030120849609
916254.07329368591309
915194.89481544494629
914124.07873725891113
913043.37765884399414
911955.10873603820801
910862.53313255310059
909768.6257495880127
908674.47824859619141
907579.53357124328613
906484.14053344726562
905390.0991096496582
904300.53018188476562
903219.08905220031738
902150.09287452697754
901098.37381744384766
900067.60859298706055
899058.53494262695312
898068.06795310974121
897090.2476634979248
896118.43022918701172
895148.69679832458496
894181.30125045776367
893220.31191635131836
892270.45754241943359
891334.78786087036133
890413.05608177185059
889501.93896102905273
888596.76388931274414
887694.00492477416992
886793.36008071899414
885898.51129150390625
885015.81335639953613
884150.24552345275879
883301.54304313659668
882463.30362319946289
881625.72753143310547
880780.10955429077148
879922.53353118896484
879054.51815223693848
878180.36949729919434
877303.9183521270752
876425.82115745544434
875543.87716674804688
874655.36859703063965
873758.87256622314453
872854.82877159118652
871945.10515403747559
871031.92294311523438
870116.77001762390137
869199.93818092346191
868281.45293426513672
867362.31076240539551
866443.84663963317871
865526.00053977966309
864606.59977149963379
863682.55747604370117
862751.71712112426758
861813.59634971618652
860869.33643531799316
859921.15068244934082
858970.88105392456055
858018.27435302734375
857060.09343719482422
856090.85421562194824
855105.92795562744141
854104.21977424621582
853089.13520622253418
852066.52020263671875
851041.73830032348633
850017.23753547668457
848991.52670478820801
847961.03264045715332
846923.44912719726562
845879.91280937194824
844834.94785690307617
843793.34448623657227
842757.12355804443359
841723.97171974182129
840689.08915710449219
839648.74993133544922
838603.08236694335938
837556.37618255615234
836514.79106330871582
835483.86227226257324
834466.88747978210449
833464.51800155639648
832475.47368049621582
831497.88922500610352
830530.57829856872559
829572.63922119140625
828622.83743476867676
827679.85787582397461
826743.46558380126953
825814.95217132568359
824895.99758148193359
823987.185546875
823087.22915267944336
822194.31569290161133
821308.35305023193359
820431.59694862365723
819567.02281379699707
818715.96719360351562
817877.51504516601562
817049.60038185119629
816230.32633018493652
815418.27016830444336
814611.63306427001953
813807.77619552612305
813003.42724800109863
812196.00368309020996
811384.72194290161133
810570.82649421691895
809756.57018280029297
808943.3478889465332
808130.70821762084961
807316.40698432922363
806497.32408905029297
805670.1037654876709
804831.3269214630127
803978.19823455810547
803109.07935333251953
802224.37972640991211
801326.90157318115234
800420.95128440856934
799510.72068023681641
798598.72543716430664
797685.4515380859375
796770.16153144836426
795852.02527809143066
794930.34214973449707
794003.91797637939453
793070.91184425354004
792129.45707893371582
791178.59967041015625
790219.45162582397461
789254.61361694335938
788287.32389640808105
787320.48025703430176
786356.62718200683594
785398.11912155151367
784446.83928489685059
783503.87760543823242
782568.93610572814941
781640.54323768615723
780716.88622283935547
779797.12303161621094
778881.83816337585449
777972.64230918884277
777070.87747192382812
776177.02381324768066
775290.95305442810059
774412.6818962097168
773542.87331390380859
772682.71375465393066
771833.50975799560547
770995.99019241333008
770169.80873107910156
769353.86445426940918
768546.73064422607422
767747.53277015686035
766956.1646728515625
766172.92734718322754
765397.88793754577637
764630.21875953674316
763868.1660213470459
763109.20832061767578
762350.5118522644043
761589.73051071166992
760825.89773559570312
760060.0521411895752
759294.75200843811035
758532.57195281982422
757774.6317253112793
757020.22377586364746
756267.76651954650879
755516.22040748596191
754766.01403999328613
754018.78689193725586
753276.13980865478516
752538.37900161743164
751803.97514533996582
751070.07172966003418
750333.85290718078613
749593.67115783691406
748849.3928394317627
748101.90399932861328
747352.17756462097168
746600.50565528869629
745846.12407684326172
745087.14201927185059
744320.83306121826172
743544.31939506530762
742755.6855583190918
741955.02300643920898
741144.32413291931152
740326.17367935180664
739502.2108211517334
738672.33266639709473
737834.96835899353027
736988.11900901794434
736130.58918190002441
735262.73896980285645
734386.68295669555664
733506.02942657470703
732625.33017539978027
731749.32326698303223
730881.90722465515137
730025.04512214660645
729177.76237869262695
728336.11529541015625
727494.59263038635254
726648.46777725219727
725795.73812103271484
724937.69756889343262
724078.1390209197998
723221.64290809631348
722372.05710220336914
721531.54412269592285
720700.41055297851562
719877.48366546630859
719060.75786209106445
718247.98952293395996
717437.39643096923828
716628.3773307800293
715821.88937568664551
715020.2275333404541
714225.99180603027344
713441.12288284301758
712666.56898498535156
711902.5897045135498
711149.06206130981445
710405.61010932922363
709671.45179176330566
708945.25901412963867
1224247.7481670379639
1208165.942174911499
1201001.8452911376953
1194918.1105213165283
1189902.7659645080566
1185877.8859558105469
1182684.0870780944824
1180070.9853496551514
1177736.3450870513916
1175493.6898918151855
1173244.4578971862793
1170924.7688217163086
1168531.4847602844238
1166122.0810222625732
1163729.7422065734863
1161395.9454708099365
1159173.037166595459
1157102.4710216522217
1155203.4888668060303
1153457.2970447540283
1151833.145170211792
1150290.1863346099854
1148777.2584114074707
1147274.6384105682373
1145793.1313972473145
1144365.631477355957
1143002.3761329650879
1141701.4949131011963
1140478.8690586090088
1139363.4455814361572
1138382.5281391143799
1137541.1628074645996
1136836.4947872161865
1136235.0741310119629
1135689.3225040435791
1135166.2085647583008
1134644.0118618011475
1134104.4814758300781
1133535.3957443237305
1132914.3113746643066
1132226.321496963501
1131473.3931999206543
1130666.562183380127
1129819.5885200500488
1128942.0631237030029
1128030.5810565948486
1127083.0554790496826
1126108.4013690948486
1125108.489803314209
1124077.5173797607422
1123012.5285625457764
1121914.8783149719238
1120792.1381721496582
1119652.2911605834961
1118495.8555450439453
1117318.9822578430176
1116120.872579574585
1114905.656946182251
1113681.2666549682617
1112463.5684700012207
1111269.7311115264893
1110117.2604827880859
1109020.9833602905273
1107985.837345123291
1107001.2859477996826
1106051.4782104492188
1105123.8464984893799
1104218.1652317047119
1103334.6060104370117
1102465.2382946014404
1101595.4102153778076
1100700.0196304321289
1099763.9425144195557
1098794.8856906890869
1097809.1009941101074
1096816.4995822906494
1095811.9168701171875
1094786.0997409820557
1093731.638542175293
1092647.0046157836914
1091536.4490547180176
1090412.0211753845215
1089287.4985084533691
1088168.0799369812012
1087048.1164035797119
1085920.0404376983643
1084785.1678218841553
1083657.9672222137451
1082554.58522605896
1081483.2743034362793
1080444.5155754089355
1079431.6844730377197
1078433.8200054168701
1077444.1253337860107
1076463.8055362701416
1075501.3606071472168
1074563.7676086425781
1073648.8971462249756
1072750.0266265869141
1071858.8633518218994
1070967.4527816772461
1070069.7025680541992
1069164.5170097351074
1068258.002462387085
1067355.4247398376465
1066453.8647785186768
1065544.2148208618164
1064618.9936618804932
1063677.0735816955566
1062721.961181640625
1061757.4952220916748
1060782.4353542327881
1059790.9153232574463
1058772.9798393249512
1057720.88352394104
1056635.4959907531738
1055525.2384910583496
1054395.3263282775879
1053241.2563915252686
1052052.098237991333
1050820.5431671142578
1049547.0410575866699
1048237.2445182800293
1046899.0885791778564
1045539.2930221557617
1044160.575740814209
1042762.7985610961914
1041347.1573886871338
1039918.50270652771
1038485.0113296508789
1037056.222188949585
1035641.5070037841797
1034248.3868560791016
1032880.2871704101562
1031539.4797172546387
1030229.7644062042236
1028955.7027244567871
1027720.2245254516602
1026521.9044151306152
1025357.9113807678223
1024223.798942565918
1023114.9217109680176
1022027.944314956665
1020958.6766052246094
1019901.197790145874
1018851.8469429016113
1017811.9359588623047
1016785.015983581543
1015770.5945873260498
1014762.0375118255615
1013749.2917900085449
1012723.3713569641113
1011679.9885444641113
1010617.7838325500488
1009535.3388366699219
1008430.7117080688477
1007305.488489151001
1006166.653076171875
1005023.5183792114258
1003882.1071739196777
1002740.7494010925293
1001591.9470710754395
1000429.2844429016113
999250.50548934936523
998056.09348487854004
996846.80025672912598
995622.31831359863281
994382.49842834472656
993129.74215126037598
991869.57010841369629
990608.22813415527344
989349.21049880981445
988093.82505226135254
986843.01605224609375
985598.43337249755859
984362.75943756103516
983139.81825637817383
981935.02182006835938
980753.17912673950195
979595.77641868591309
978460.62235450744629
977343.06745719909668
976237.73095321655273
975142.53789329528809
974060.30844306945801
972996.21747207641602
971952.93917655944824
970928.75660133361816
969920.5432014465332
936220.96211051940918
935324.77322769165039
934431.46512222290039
933535.18509864807129
932631.37844848632812
931719.58004760742188
930802.9763298034668
929884.74415397644043
928963.71120452880859
928034.51081466674805
927091.7791805267334
926133.74456024169922
925163.3954963684082
924186.59524536132812
923208.71823883056641
922231.66300582885742
921252.92695045471191
920267.18394470214844
919268.93239402770996
918254.63986396789551
917223.93840026855469
916179.08992195129395
915123.68011856079102
914060.94455718994141
912993.07503890991211
911921.11789321899414
910845.82208824157715
909767.73554801940918
908686.82509613037109
907602.68298530578613
906515.83344078063965
905428.45357322692871
904344.01440620422363
903266.65111923217773
902200.82585334777832
901151.20051765441895
900121.61721992492676
899112.72246932983398
898120.87664985656738
897139.22499656677246
896161.57489204406738
895185.61182975769043
894212.94656181335449
893247.51928329467773
892293.1395378112793
891351.48470115661621
890420.61068534851074
889495.96710586547852
888573.01765251159668
887649.4133472442627
886726.62468910217285
885809.74983024597168
884905.92473793029785
884020.4429988861084
883152.64974975585938
882295.27054214477539
881438.12832450866699
880573.20493507385254
879697.66175651550293
878813.06207084655762
877922.05898857116699
877025.96212959289551
876124.73693084716797
875218.02654266357422
874306.0167407989502
873389.00128936767578
872467.18907737731934
871541.27462005615234
870612.49653816223145
869682.19619750976562
868751.35105895996094
867820.42970848083496
866890.50188255310059
865962.75085258483887
865036.85111427307129
864110.14034461975098
863179.02041053771973
862241.33999443054199
861296.92233085632324
860347.54523086547852
859395.68351554870605
858443.09062957763672
857488.88737678527832
856529.25982284545898
855558.6287899017334
854572.68118286132812
853570.96452331542969
852557.16719245910645
851536.64321327209473
850513.72575187683105
849490.10255241394043
848464.67724800109863
847434.92728805541992
846399.17439460754395
845358.21932411193848
844315.6757640838623
843276.21277618408203
842242.39070510864258
841212.8160572052002
840183.16846084594727
839149.60036277770996
838112.03917121887207
837074.52675628662109
836042.7828540802002
835021.36569213867188
834012.23257637023926
833015.39437866210938
832030.34197425842285
831057.08767890930176
830096.16229057312012
829147.36507415771484
828208.83117866516113
827277.76532554626465
826352.59902381896973
825434.08066368103027
824524.50277709960938
823625.60088539123535
822737.07625579833984
821857.47208786010742
820986.19624137878418
820124.54056167602539
819274.832275390625
818438.25320053100586
817614.00081443786621
816799.99829483032227
815994.1268196105957
815194.63730239868164
814399.3000545501709
813605.20185661315918
812809.38778305053711
812009.9827938079834
811206.59490394592285
810399.9416618347168
809591.16955757141113
808781.04006576538086
807969.75490570068359
807156.69733619689941
806340.50178146362305
805519.1847038269043
804689.8102912902832
803849.03472900390625
802993.85492515563965
802122.98675155639648
801237.88101577758789
800342.11505126953125
799439.61662483215332
798533.06435012817383
797623.34396362304688
796710.34384727478027
795793.63274383544922
794872.46720314025879
793945.46905326843262
793011.15256309509277
792068.86381340026855
791119.42185974121094
790164.8386402130127
789207.48542785644531
788249.44917488098145
787292.59807777404785
786339.01473617553711
785390.7694206237793
784449.17094039916992
783514.24431610107422
782584.72904396057129
781658.86273384094238
780735.54413604736328
779815.31200408935547
778900.33697319030762
777993.25564575195312
777095.65403938293457
776207.56987953186035
775327.98879051208496
774455.65264511108398
773589.65034103393555
772729.91886901855469
771877.2751636505127
771033.13373374938965
770198.83741569519043
769374.96680450439453
768561.11638069152832
767756.26344299316406
766959.16688537597656
766168.84489631652832
765384.57685661315918
764605.5438060760498
763830.81367301940918
763059.05187606811523
762288.43753051757812
761517.13852310180664
760744.22139739990234
759970.33724784851074
759197.55619239807129
758428.15307807922363
757663.36729431152344
756902.77939796447754
756144.82711982727051
755387.81755638122559
754630.90103912353516
753874.47832298278809
753119.79224967956543
752368.04381942749023
751619.53595733642578
750873.37149238586426
750127.92276573181152
749381.52937889099121
748633.15341567993164
747882.31377220153809
747128.74681663513184
746372.12702751159668
745611.88731002807617
744846.84890556335449
744074.88755989074707
743293.30653190612793
742499.97903823852539
741694.48584175109863
740878.39381790161133
740054.22735595703125
739223.9086971282959
738387.68795013427734
737544.1693000793457
736691.31154632568359
735827.71515464782715
734953.52872276306152
734070.52445411682129
733181.5592098236084
732290.11131286621094
731400.33142852783203
730516.74397087097168
729643.15513038635254
728780.73040580749512
727926.96250152587891
727076.59881782531738
726223.9322338104248
725365.19809150695801
724499.63843154907227
723629.14549827575684
722757.10880279541016
721887.30673599243164
721023.07764053344727
720166.84771347045898
719319.93413925170898
718482.43102264404297
717653.14527320861816
716829.88821601867676
716010.45175933837891
715193.74356651306152
714380.33972549438477
713572.03111457824707
712770.81597137451172
711978.20011138916016
711195.21169853210449
710422.79932594299316
709661.99169540405273
708913.44019508361816
708176.74004364013672
707450.04899787902832
1236361.65549659729
1214354.497142791748
1204550.6375141143799
1197051.0359497070312
1190889.0397396087646
1185833.7793121337891
1181764.0567569732666
1178484.0883197784424