/*--------------------------------*- C++ -*----------------------------------*\
  =========                 |
  \\      /  F ield         | OpenFOAM: The Open Source CFD Toolbox
   \\    /   O peration     | Website:  https://openfoam.org
    \\  /    A nd           | Version:  12
     \\/     M anipulation  |
\*---------------------------------------------------------------------------*/
FoamFile
{
    format      ascii;
    class       volScalarField;
    location    "0.016";
    object      rho;
}
// * * * * * * * * * * * * * * * * * * * * * * * * * * * * * * * * * * * * * //

dimensions      [1 -3 0 0 0 0 0];

internalField   nonuniform List<scalar> 
75962
(
1.1466207769279745943
1.1456828715893616621
1.1475261675185632892
1.1475281432564603534
1.1483420394875982762
1.1495020274031615415
1.1497129392797240666
1.1494860048932018515
1.1491927844372771261
1.1488746976734161009
1.1482876061224562836
1.1479592756414591648
1.1491682221889789606
1.1508229183875577917
1.1511034381792508707
1.1501103669686734143
1.1491142477670512889
1.1488207444992826201
1.1491134968686549378
1.1497225752472708393
1.1503467670702247627
1.1504843236992239319
1.1500814646184305268
1.1496303387076614033
1.1495645731749843943
1.1494823029954430726
1.149193715871864363
1.1490891487006300586
1.1493236547572971418
1.1497046219750324259
1.150248007061586808
1.1508055177846079342
1.1509387507802872896
1.1504556579238609526
1.1498349873333622018
1.1495942084089001423
1.1498399072233245199
1.150326794249905582
1.1508192586723378081
1.1511763445346261392
1.1512952309552271224
1.151255185161018435
1.1511952980236710431
1.1511937190164560629
1.1513135217186349912
1.1515068766210050377
1.151631434452361713
1.1516639714916228066
1.1517031478214496687
1.1518037496311255286
1.1518101356727736828
1.151607309037654181
1.1513379896789550649
1.1512233844932724391
1.151347434838392525
1.1516389486425648858
1.1518998673614300188
1.1518811346933999218
1.1514735826752899861
1.1508840725458020504
1.1505104565348145407
1.1506139191498943042
1.1511550484598132016
1.151791602694703931
1.1521525332850846013
1.1521796541803024372
1.1520543440976356298
1.1519793218985172611
1.1519605786512918666
1.1518735958220189808
1.1516656228094084291
1.1514764492251350347
1.1514953877618079314
1.1517271062379308422
1.1519679867780010518
1.1519645083074476766
1.151650569901225829
1.1512319118312719368
1.1509783210770831996
1.1510271113092187534
1.1513449660815608944
1.1517972509082119448
1.1522266288695850456
1.1524762790414111446
1.1524814926708200069
1.1523009377235109429
1.1520872218098912043
1.1519416559464030758
1.1517982445841170591
1.1515647328663178861
1.1512575544258905058
1.1509912778391278021
1.1508447088138926695
1.1507846966048476123
1.1507252745954525963
1.1506478411060920841
1.1506220308851089484
1.1507290648263732713
1.1509810137528899698
1.1512839466727562421
1.1515190996580264571
1.1516734941499930933
1.1518435052270015184
1.1520956181265480378
1.1523783723073108831
1.1525279687711680321
1.1524011557563833552
1.1519906511226958301
1.1514421474534617396
1.1509704702780061414
1.1507349761166119073
1.1507402282363339285
1.1508688986059998349
1.1510135603434621387
1.1511627813457292469
1.151377465480323492
1.1516643835627433656
1.1519135830347737581
1.1519970374888039988
1.1518813772834768372
1.1516624235023416034
1.1514842248782342082
1.1514332084456491145
1.1514894100548358491
1.1515778055370660127
1.1516372705212511995
1.1516529793833145678
1.1516403218459752011
1.1516086381233852087
1.151558499010435721
1.1514873570645027812
1.1514012113676277416
1.1513299228201079316
1.1513264944793715205
1.1514484560639877131
1.1517199388563978957
1.1521255475279150726
1.1525334075658277833
1.1527789223506401672
1.1527163140358442917
1.1523353399348175152
1.1518024361594394467
1.1513463462342772292
1.1511519261318681195
1.1512875189721916147
1.1516997774134249966
1.1522554016691810563
1.1527940231353737133
1.1531793720319267749
1.1533428943662744626
1.1532833614384099263
1.1530652851280513982
1.1527884773866909907
1.1525420488802273766
1.1523911218709892434
1.152375484558940455
1.1525039475002403222
1.1527517512599882998
1.1530563344970041761
1.1533267864181795392
1.1534973063145543826
1.1535472127660384434
1.1534959686510743992
1.153377180728226481
1.1532294218096705851
1.1530968956601521658
1.1530238228832205838
1.1530582280739480883
1.1532057282022356581
1.1534180292096618548
1.1536176117750085446
1.1537572149214723183
1.1538294269252626911
1.1538672905269160562
1.1539186683774960152
1.1540210608936667391
1.1541885877718609521
1.1543986642444932222
1.1545889530332529294
1.1546819158240986258
1.1546262853788744618
1.154431982136056023
1.1541739878771424266
1.1539542732303127437
1.1538526922866578772
1.1538990409728748787
1.1540729938082039396
1.154324800597150924
1.1558427158616197961
1.1558900044463329415
1.1559635397020893155
1.1560201190644581182
1.1560415110765955848
1.1560398000907154969
1.1560526674228477351
1.156118158108738303
1.1562465277359790239
1.1564109000048841125
1.1565611101338877376
1.1566525772863722743
1.156666565698721838
1.1566202986596398894
1.1565545453376353535
1.1565046280575337345
1.1564822725636272338
1.1564705510671287048
1.1564363683977521013
1.1563537963551921983
1.1562230131826300994
1.1560725887900880071
1.155943499294032506
1.1558734984978809024
1.1558778636046149746
1.1559423834411386434
1.1560351083575812758
1.1561176472098904089
1.156155552438702161
1.156130466436726012
1.1560405933193524941
1.1558989128804222357
1.1557248465504328383
1.1555407680113165547
1.1553669818149865378
1.1552229483061144943
1.1551223073085394866
1.1550681413189931579
1.1550534394798461779
1.155059348855530077
1.1550718282359857536
1.1550845289632800661
1.1551032194963279931
1.1551385086891483578
1.1551989405936156086
1.1552795170300229621
1.1553594512296991859
1.1554136545761319876
1.1554235808829276255
1.1553825811531173162
1.1552972696560850352
1.1551828064681799457
1.1550528951042071668
1.1549171012206458364
1.1547830006957688909
1.1546604029976419437
1.1545629786130513494
1.1545057892541399358
1.1544991804145923187
1.1545408520179947232
1.1546097087539155535
1.1546708325377423865
1.1546863609647668447
1.1546338780081193409
1.1545172350079282442
1.1543684477667965904
1.1542349767962185592
1.1541631393870370736
1.1541758254442111564
1.1542649093389205639
1.1544014311114780824
1.1545439086533331174
1.1546656198587121889
1.1547557838413948783
1.1548179039370214394
1.1548557549782683118
1.1548613147517434729
1.1548143594036937021
1.1546892246715787511
1.1544665603625128281
1.1541497756973309041
1.1537742257059764306
1.1533961942367110254
1.1530815496219837257
1.152888955881036237
1.1528508445100242863
1.1529671186416616813
1.1532024263773221762
1.1534961896300177653
1.1537778861051897206
1.1539834110270867917
1.1540728078231652365
1.1540326515553875897
1.1538766143300400735
1.1536380758926703116
1.1533584305461230812
1.1530783211986226355
1.1528321772237151155
1.1526436756219182733
1.1525249857746830973
1.1524756241715965466
1.1524858893863263454
1.152538301896128603
1.1526119627784039423
1.1526842066074995952
1.1527335761287835769
1.152742714945157454
1.1527006765603236005
1.1526026851320372302
1.1524493265412700804
1.1522515136389894774
1.1520245727253353163
1.1517861798464814616
1.1515544821558580946
1.1513422747141308644
1.1511584435820736427
1.1510045759497538054
1.1508812805335020268
1.1507869394473653202
1.1507242523688669955
1.150692035462884677
1.150686867959131332
1.1507008857681542136
1.1507208675880213899
1.1507333089579609986
1.1507326758677645095
1.1507158019825971529
1.1506913341501574521
1.1506727020507778736
1.1506630338215413367
1.1506617107973340364
1.1506588241617783375
1.1506381165386536658
1.150586943549429364
1.1505012347834850939
1.1503886648598056208
1.1502653243525142734
1.1501522610100094468
1.1500688111446433215
1.1500263319353101199
1.1500260745835264586
1.1500623657060522476
1.1501266151629283563
1.1502097993377462526
1.1503052882913886723
1.1504082894250644564
1.1505154718352126331
1.1506233743624985078
1.1507267675148973307
1.1508200960337755525
1.1508984771270485137
1.1509564159582452714
1.1509964906583776134
1.1510179988651818572
1.151032352268022585
1.1510380216766684658
1.1510406648718212175
1.151036536983937042
1.1510157784473562526
1.1509738701564424801
1.150911043732893102
1.1508311880906261226
1.150743637544509701
1.1506630673475584103
1.1506076466410553039
1.1505896491835150286
1.1506155846840129264
1.1506802059497585056
1.150768967059950576
1.1508629248352699737
1.150941087267450369
1.1509887221794770085
1.1509970404032536795
1.1509652471868099255
1.1508959753020622241
1.1507934375364805568
1.150662709520961613
1.1505102638798732073
1.1503454427778396774
1.1501796379861526365
1.1500254500922453271
1.1498954441392728043
1.1497973491175275118
1.1497321868116341381
1.1496964787667165453
1.1496780079015955778
1.149665339563795019
1.1496531486536010203
1.1496449449202712501
1.1496521800790200363
1.1496924739798197734
1.1497833879036147842
1.1499352497332266942
1.1501468299908028659
1.1504023538773562318
1.150674026909668024
1.1509271278119119764
1.1511275607397828402
1.1512493821485147993
1.1512807731950214229
1.1512274899546197648
1.1511111028870855133
1.150961822917979438
1.1508130182728846247
1.1506920021736939397
1.150615011132966492
1.1505847358513856538
1.1505917057404473347
1.1506200575087821569
1.1506508883616579642
1.1506676136809899091
1.1506604364527179829
1.1506265927723577924
1.1505675018816579058
1.1504919784519462844
1.1504085764511677858
1.1503260345256578479
1.1502546939581161922
1.1502044860444404772
1.1501833179290508191
1.1501971016946026527
1.1502497671748350694
1.1503419613039103098
1.1504694295610653487
1.1506230035598683514
1.1507888605064346965
1.1509492376358887444
1.1510829612820014933
1.1511706814523010589
1.1511981166661167109
1.1511586598474141674
1.1510536729394971189
1.1508940212261706826
1.1506969223727965268
1.1504842951702873854
1.1502776934658236474
1.1500948469100293892
1.1499463174585873304
1.149835925934182157
1.1497601787665328033
1.1497096777758530894
1.1496721691301108326
1.1496345048440930192
1.149584748519200339
1.1495143710665380876
1.1494203137676044513
1.1493043106162512679
1.1491728443004869398
1.1490370065393142873
1.1489102363321281874
1.1488057113166609824
1.1487343267852314632
1.1487031392167006416
1.1487146678603943339
1.1495960693232285532
1.1496875798776657884
1.1496906801072326321
1.1490718468841798483
1.1486572210043222153
1.1474550985271236847
1.1473599214785219491
1.1484192144593163842
1.148904559141127768
1.149261350816454641
1.1495583674925213824
1.1495348242977130315
1.1501929620283071198
1.1513984882052297198
1.1516985297914008601
1.1507437611463808835
1.1498338116401627396
1.1496985522487206399
1.1498937756876228544
1.1502890194725348127
1.1508941812685040684
1.151078730954542495
1.1504891006250810292
1.1498160438078466328
1.1497300341869793883
1.1497063871136532498
1.1493074882995006902
1.1489201970720528401
1.1489334928984347162
1.1493215089264163797
1.1500429030941352604
1.1508767712769198965
1.1512892489102823923
1.1510651490902619187
1.1505879744006961563
1.1503149606334066579
1.1503201831814942047
1.1505060323097544561
1.1508039492721007235
1.1510379258982681439
1.1510376267917790116
1.1509164424109921132
1.1508660411600761808
1.1510375017111706963
1.1513643700598525932
1.1516407095061464982
1.1517678721306945366
1.1518167004917090335
1.1518724942742928352
1.1518810931431884281
1.1517036189035374516
1.151336100146202357
1.1509802744452704015
1.1508448602766279123
1.1510135189826340429
1.1514126687908230462
1.1518270715659677528
1.1519466677982272973
1.1516335069016836457
1.1510911817707927263
1.1507165171224658096
1.1507751145919173918
1.1512627788493101644
1.151910280938974962
1.1523611097834307593
1.1524545838488673422
1.152332410384832917
1.1522530566677660069
1.1522586421429974468
1.1521852227301943028
1.1519452908427416649
1.1516582091463509752
1.1515502445253831265
1.1516994094445358598
1.1519419213011898862
1.1520063920628258458
1.1517943878931240498
1.1514469439107439808
1.1512098090274185402
1.1512159508585582124
1.1514186215043347161
1.151707972332593366
1.1519925119420664217
1.1521816733920944298
1.1522253911606967769
1.1521520715513278166
1.1520553221103229102
1.1519713427175897191
1.1518316516540019201
1.1515649370981064781
1.1512133116687035539
1.1508873076957306658
1.1506861155961729537
1.1506036384266544736
1.1505809784746441338
1.1505783158260995958
1.1506160881794871287
1.1507521751334928162
1.1509955367130499937
1.1512597318785795508
1.1514263387385008652
1.1514688958288801235
1.1515113645408663334
1.1517021009088248551
1.1520230647306684002
1.1522725174586039287
1.1522330841723189554
1.1518674488842475245
1.1513509717145031797
1.1509403433773313097
1.150788176202608204
1.1508578736101429119
1.1509969783890057204
1.1511015327532947428
1.151202742705010662
1.1513880080520499938
1.1516728235517947887
1.1519542638361899289
1.1520878755802999027
1.1520116383242835489
1.1517946366390447999
1.15156760667889424
1.1514379411133048858
1.1514315281336287011
1.1515209302939428682
1.1516339061722664638
1.1517123264915252179
1.1517222906539605898
1.1516512360406978566
1.1515123845188126595
1.1513377170781171621
1.1511767807130364183
1.1510822799749960144
1.1511155768037899527
1.1513154400060523486
1.1516829287975649532
1.152152857152376253
1.1525806570784626892
1.1527945985811955953
1.1526791206098299103
1.1522478918457776942
1.1516759659740865018
1.1511940402469826861
1.1509777603769972831
1.1510998836436463488
1.1514992642992518679
1.1520359375264335178
1.1525510930113707087
1.1529280445832952307
1.1531096161914964338
1.153097559758819779
1.1529441254769043912
1.1527202276340529075
1.1524884803410215817
1.1523051944048867679
1.1522244370887428921
1.1522813802555602614
1.1524815054057431229
1.1527865325051480649
1.1531112967075998199
1.1533644295629217336
1.1534847640463039564
1.153458085045012238
1.1533116522982009844
1.1531059813127955138
1.1529288484006303683
1.1528597551050423498
1.1529427663785589697
1.153165352750421313
1.1534574746618446728
1.1537201989742753572
1.1538966835311976755
1.1539773074665946595
1.1539960016065757831
1.154008804487121731
1.1540699514863754782
1.1542104438625695462
1.1544183637989164914
1.1546293011414976437
1.1547550364396439448
1.154734213946037702
1.154566227990271976
1.154316387744500183
1.1540819163731377284
1.153945003414661219
1.153939549441290513
1.1540648033537970196
1.1542883301665354256
1.1545805054434654657
1.1559274964622727744
1.1558893002913726011
1.1559170277101180613
1.1559782460097129952
1.1560453703794224545
1.1560987149623216386
1.1561462295054607541
1.1562088645177688306
1.156304720670592312
1.1564365288880780192
1.1565768534752132179
1.1566888223065563412
1.1567410689620534203
1.1567251743289697075
1.1566603698635684605
1.1565817010047025892
1.1565178101191133653
1.1564769247594990365
1.1564449430152601295
1.1563989732041219938
1.15632352130213234
1.1562199952284619719
1.1561121066215600539
1.1560332650385487518
1.1560125921840098684
1.1560547907249107968
1.156136701127294053
1.156219899216074376
1.1562633107962629886
1.156243101234286641
1.1561581098988029659
1.1560255914941965916
1.155870466110824113
1.1557176080453417377
1.1555813432361241588
1.1554695925232199016
1.1553818979477259443
1.1553200270060666188
1.1552833523248045022
1.1552568238565392722
1.1552275283906821013
1.1551870238283203918
1.1551400510886438155
1.1551074793801621166
1.1551122203908195107
1.1551739924796875503
1.1552866509914778703
1.155420111716751963
1.1555352793007755974
1.1555953337265845171
1.1555832483666590438
1.1555039199120020754
1.1553771926941918124
1.1552265711132723158
1.1550704638835807003
1.1549211007958180009
1.154789048669146112
1.1546855774342972278
1.1546212091231906616
1.1546024630530391519
1.1546259642388845279
1.1546746686181996733
1.1547165414246971515
1.1547185528724861481
1.1546616645665184198
1.1545506862946937066
1.1544162564067883547
1.1543039354794430995
1.1542508974793030951
1.1542774946895302257
1.1543682417535341411
1.1544959512403127899
1.1546191016349554026
1.1547118118141557197
1.1547702164262791946
1.1548007227707111078
1.1548070860046855124
1.1547812048119974193
1.1547023133560603281
1.1545475160596341269
1.1543037007917493764
1.1539800418312453623
1.1536150206283686259
1.1532667710097748159
1.1529937958416767163
1.1528447494553251129
1.1528440754222559761
1.1529818403534348725
1.1532194978331997692
1.1534973272096440411
1.1537507799364268291
1.1539250232330113821
1.1539880550848546914
1.1539303358093964125
1.1537667329622189882
1.1535275288349857714
1.1532500971224353137
1.1529714309971941244
1.1527235143657328376
1.1525298549306099982
1.1524045118416232913
1.1523521717835454314
1.1523677260314850734
1.1524365463245926922
1.1525355695809662571
1.152638547187958995
1.1527188291499235184
1.1527523605469121026
1.1527238256467255972
1.1526268416266300942
1.1524649778996749472
1.1522518227429534576
1.1520085478191164352
1.1517601423318721832
1.1515275011036576469
1.1513245658745374644
1.1511594119312118512
1.1510305376128968646
1.1509313814848127766
1.150856742426223045
1.1508030941302904715
1.1507681298296006389
1.1507486191412612531
1.1507361887078637608
1.1507237156261835853
1.1507010045669647802
1.1506594673786390004
1.1506049764367376476
1.1505494801172524433
1.1505072796158215542
1.1504886264318185951
1.1504910491958397767
1.1505041173159733514
1.1505120361076015545
1.1504973815997650011
1.1504530685388099087
1.1503839023857140855
1.1503050757774186952
1.1502346597274257789
1.1501890263950438342
1.1501762045939707413
1.1501948528450878229
1.1502347124243714749
1.1502847285909378883
1.1503362693776959524
1.1503867119919353179
1.1504369681331998443
1.1504910626991586842
1.1505533955590383499
1.1506274235916635895
1.1507118785534640182
1.1508040256874905172
1.1508930979174079035
1.1509733279324958488
1.1510341756526210055
1.1510692986970647578
1.1510749334594658766
1.1510499094882089555
1.1509901108241735734
1.1508986927448541238
1.1507848296561531409
1.1506572944352218002
1.1505290560112122478
1.1504146876143908074
1.1503296399836087094
1.1502903822909174014
1.1503033009691323585
1.1503649768520014529
1.1504632545425004242
1.1505771008463447913
1.1506810927464843353
1.1507543140456844011
1.1507844838377336849
1.1507697104502281338
1.1507162659484664324
1.1506351443318616479
1.1505371455673769621
1.1504289082679204359
1.1503137317336689094
1.1501963577841001207
1.1500809997523679939
1.1499749832294519081
1.1498853272324447428
1.1498185965706928524
1.1497761122648242349
1.1497540864239326197
1.1497431398767463673
1.1497332354951588229
1.1497192990324001105
1.1497042623515114634
1.1497006447875948165
1.1497264254150658669
1.1497982492738434424
1.1499280119370314246
1.1501153929866139158
1.1503444690135113948
1.1505870816282510738
1.150808286186745466
1.150974166332459081
1.1510600564305542015
1.1510571193244076849
1.1509739987339524525
1.1508351547873736376
1.1506734196454013741
1.1505221324619048229
1.1504073104951000328
1.1503444758439527185
1.1503348527642669463
1.1503670719537348877
1.1504224957775470717
1.150480329836586435
1.1505228573144288262
1.1505378656383631331
1.1505190614321583187
1.1504680274066982903
1.150388967002523577
1.1502917334242894754
1.1501883345883914256
1.1500915694262277
1.1500158727881468756
1.1499753461735500171
1.1499814171707296584
1.1500404389831433427
1.1501515731179277058
1.1503067030833520334
1.1504915311835375302
1.1506855304479082225
1.1508656279879601048
1.1510093148411697506
1.151095814006877216
1.1511118562261390963
1.1510526287825320058
1.1509238303171853701
1.1507395413825400876
1.1505215899483152153
1.1502937283501279975
1.150079505394882684
1.1498971545441183384
1.1497576372740025974
1.1496625851326804924
1.1496062884907449764
1.1495769916216775908
1.1495594920478964251
1.1495392861890763037
1.1495044868549584294
1.149448018683566497
1.1493680489560624824
1.1492681258277150924
1.1491560764907744474
1.1490422648753395585
1.1489385434245626971
1.1488563384838488268
1.1488039306908264248
1.1487850521654427993
1.1487990799528111641
1.1502925042319214199
1.1513600819133935627
1.1502250858231470865
1.1491415511249192249
1.1481748072811448491
1.1481534168510270089
1.1494884246969687691
1.1500511914073632269
1.1495656480944744793
1.1500608799997071863
1.150967626273192046
1.1511900645510568797
1.1511259611041666506
1.151472324140766057
1.1516486187028716071
1.1512393259176194604
1.1509946961799557563
1.151095279990422382
1.1508940774992284517
1.1506744873289644904
1.1511570989439026125
1.1517212963792977654
1.1513616918990499105
1.1505859808462834959
1.1503061964733793943
1.150208584018688196
1.1496988346815284476
1.1490492182244584907
1.1489083973582261411
1.1493467591272941153
1.1501284933470461436
1.1509732874117808432
1.1514794943976838226
1.1514828824926996997
1.1511638367530729887
1.150826944925526174
1.1506356742561902884
1.1506979461088033823
1.1509457671709724114
1.1511113062857178946
1.1510218366438087489
1.1507759213607240412
1.1506729865876186292
1.1509083131225674723
1.1513466109651542268
1.1517161144805529993
1.1519223020901891985
1.1520100976240290613
1.1519746816496303499
1.1517353476520475475
1.1512821149945220434
1.1507880766738569633
1.1504997666793834732
1.1505412225458262476
1.1508684185552693346
1.1513782748420053892
1.1518675302615499767
1.1520677565325871949
1.1518438558118404558
1.1513606559493498871
1.1509739724807428463
1.1509811324033758506
1.1514398251712596455
1.1521420254955494489
1.1527058419274409662
1.1528408780480068341
1.1526398081024165077
1.1523980194745298
1.1522809296456282269
1.1521957731204317543
1.1520050312655178981
1.1517486630697058025
1.1516040214050804469
1.1516903194969914104
1.1519134226596032811
1.1520491396798795414
1.1519866174369308709
1.1517742473373140388
1.1515783677325532874
1.1514980091134545681
1.1515498682138800568
1.1516977101185026378
1.1518797725654585928
1.1520203918289129152
1.1520648808526834372
1.1520188208901700477
1.1519282546175428905
1.1518088832000772381
1.1516234026794041068
1.1513434033175717897
1.1510258192286146883
1.1507418957413775296
1.1505454547167413004
1.1504635351343137639
1.1504918375319646007
1.1505758086355528658
1.1506717683915934636
1.1507928431607763464
1.1509530731675439164
1.1511083710795575463
1.1511780110748282002
1.1511662993620215278
1.1511972561836274487
1.1514019616687083403
1.1517457916389344241
1.1520183554372291912
1.1520004559649756892
1.1516887074256334511
1.1512719997930176419
1.1509844272780784813
1.1509330908690975637
1.1510496773953318161
1.1511714193416406893
1.1512298342477014224
1.1512778054865679955
1.1514083694315724316
1.1516440400671277278
1.1519076975653548267
1.1520743237511033019
1.1520581954061552832
1.1518843616007810038
1.1516677752164250492
1.1515407571266687015
1.1515658505714840842
1.1516934460534402618
1.1518221001255970481
1.1518582443683158534
1.1517601280833014155
1.1515527928309510219
1.1513001268364926322
1.1510656382337298709
1.1509158645001977828
1.1509127276283308561
1.1510925582688582569
1.1514528290777938935
1.1519365109288357552
1.1524074798374568385
1.1527196642862096443
1.152764242758133717
1.1525170890910789723
1.1520520257485054039
1.1515185607975575444
1.1510948376765406387
1.1509137974679941596
1.1510271552922091143
1.1513871047335306752
1.1518705297553912814
1.1523448413487731301
1.15270374815182719
1.1529037593912205839
1.1529598915947485427
1.1529036554417979588
1.1527615831806423685
1.1525612475006326019
1.1523433550314372553
1.1521783186636949115
1.1521422011720532375
1.1522763340851345237
1.1525683268403625892
1.1529415872198336412
1.1532793520567790058
1.1534822185241755399
1.1535045935537426853
1.153369891801579783
1.1531574724391295828
1.1529727677376075956
1.1529115816171289222
1.153013276968513523
1.153255440351854233
1.1535630326224670661
1.1538479846240115023
1.1540494613248999389
1.1541457131810954895
1.1541593155835563334
1.1541460753000869488
1.1541750429836150627
1.1542960834779758539
1.1545054537164503028
1.1547401458863044699
1.1549022041448109288
1.1549205046092620996
1.1547905240401985516
1.1545679835914537392
1.1543382502048860072
1.1541815725299746642
1.1541362721813186454
1.1542086596665526166
1.1543894893575357141
1.1546584105177928326
1.1560596296690845985
1.1560248956528689224
1.1560447848050448005
1.1561078681505063681
1.1561948199163076811
1.1562933084389857008
1.1563943694174201315
1.1564993667129348509
1.1566049204374631021
1.1567009194429109797
1.1567731671926140269
1.1568051385842450518
1.1567874298488955986
1.1567254021896704597
1.1566385172361892675
1.1565506421689408789
1.1564754332364057809
1.1564216166300242961
1.1563821641031555298
1.1563426880244258577
1.1562959647895860726
1.1562434555031486649
1.156200231449955762
1.1561864327192725721
1.1562133567084145191
1.1562736670235873593
1.1563394638449540075
1.1563721333479559661
1.1563436708290628641
1.1562453096408462638
1.1560941585447794822
1.1559241744562509524
1.1557701252346124221
1.1556525828201147377
1.1555786055551680036
1.1555403749128290158
1.1555254676078821063
1.1555194579865182281
1.1555088602597531899
1.1554852104246264854
1.1554328149505488366
1.1553501543182747024
1.155253402853282374
1.1551729126914584977
1.1551484629311525865
1.1552033832251700218
1.1553312313999570815
1.1554970216319238041
1.1556495353878140087
1.1557407302921283154
1.1557463729532695407
1.1556669827267849193
1.1555227951628030958
1.1553447357349904134
1.1551593218514946138
1.15498610890093234
1.1548363783858324183
1.154720086080893493
1.154643034051435091
1.1546066341235330377
1.1546093257836849144
1.1546371591412536439
1.1546634820342431826
1.1546611180824590814
1.1546095325095901973
1.1545197187696178975
1.1544159920192615942
1.1543405773217241261
1.1543236277030111125
1.1543769740425728898
1.1544850262351875614
1.1546132369231982828
1.1547235659416330567
1.1547957584925101493
1.1548272752201909075
1.1548267351771881462
1.1548006823104903784
1.1547433036015102292
1.1546362188293857187
1.1544564953118154893
1.1541957749517977039
1.1538687950574835206
1.1535134943305440647
1.1531844656543446259
1.1529373422681927774
1.1528109639861827684
1.1528205439041740998
1.152953119759504208
1.1531685242663154423
1.1534099080737549858
1.1536183600680214312
1.1537499747323674004
1.1537799094348470952
1.1537062105605020434
1.153548270444960222
1.1533362360624601628
1.1531033361848148644
1.1528798947970322342
1.1526883092496580385
1.1525431067389815265
1.1524530502918406416
1.1524208721710296199
1.1524421413866705599
1.1525045875387787131
1.1525878742959163592
1.1526676584217210308
1.1527180843057127646
1.1527174961545132437
1.1526520956493531145
1.152518758013067135
1.1523261639290067748
1.1520916924773889622
1.151841668085496817
1.151603178284981821
1.1513953579805848992
1.1512283798979374705
1.1511040173892534977
1.1510145708821712951
1.1509486292428841026
1.1508957113748328194
1.1508493920792848275
1.1508069890980119343
1.1507675722886452352
1.150728237156446232
1.1506835153355918777
1.1506316346122646976
1.1505729759312768312
1.1505155744711683674
1.1504709758826032751
1.1504497224592824534
1.1504548352474761597
1.1504790594157709993
1.1505039701972530342
1.1505093765123568517
1.1504786592601927708
1.15041074294722101
1.1503180562704482526
1.150224977374052715
1.1501574976133841499
1.1501371165471920843
1.1501697561658699165
1.1502469167856217425
1.1503483768207583005
1.150449939921634579
1.1505313831138610503
1.1505848953203721141
1.1506127710458884383
1.1506250701353446519
1.1506359661788660986
1.1506593818099730697
1.1507047081181485115
1.1507693329898638357
1.150850449567930589
1.1509299533326613485
1.1509931239468196296
1.1510238540359527537
1.1510131046122953347
1.1509541335795707706
1.1508521948973706728
1.150718193441579551
1.1505655030419992269
1.1504079939457414472
1.1502609712988420831
1.1501411898906617193
1.1500613975705222813
1.1500297530909207033
1.1500520424655056306
1.1501218566861863835
1.1502235616215363834
1.1503361905063502757
1.1504365191165732973
1.1505076954221191698
1.1505383401464028825
1.1505302400187329415
1.1504908596892353678
1.1504291550704071057
1.1503535445210799626
1.1502694643024244936
1.1501783249818597898
1.1500812565188258674
1.1499819657614238633
1.1498884654997920673
1.1498097681836743078
1.1497547008701447524
1.1497286643266930728
1.149728627982872009
1.1497460418348939282
1.1497717492065084866
1.1497976767418185418
1.1498220743952847211
1.1498507423604849009
1.1498941638276309885
1.1499632786219500247
1.150064771376905215
1.1501967316845902456
1.1503482725998628311
1.150499324523609479
1.1506248877036293621
1.150702065525372797
1.1507162902993408604
1.1506649870498413257
1.1505592441795473579
1.1504223095988621584
1.1502822028373929086
1.1501660547736993756
1.1500930529669723956
1.1500717761150296425
1.1500984849174897828
1.1501602828526411582
1.1502389252913123308
1.1503149779062280533
1.1503708577849736105
1.1503952978830553899
1.1503806179346522942
1.1503280052525488575
1.150242949514984403
1.1501348453564284036
1.1500186557386051778
1.1499122210029986135
1.1498343192462823215
1.1498027558701120476
1.1498306155680404483
1.1499226622886953297
1.150072326414504742
1.1502636879007757109
1.1504739675329251902
1.15067673879941057
1.1508457232708515505
1.1509587034561332697
1.1510022419831593687
1.1509706858446808742
1.1508680610043779957
1.150705912973334577
1.150502603001194446
1.1502799204612257356
1.1500608027662388988
1.1498641581159139147
1.1497033931988176469
1.1495839643164045274
1.149504402675293413
1.1494569279215631763
1.149429458776938251
1.149409039407998101
1.1493833472111063543
1.1493449477671993098
1.1492904523143518958
1.1492208650293336269
1.1491417070143445933
1.1490597339548429545
1.1489834398060418952
1.148921135633704349
1.148879070514169598
1.148861996776816996
1.1488702328043549628
1.1488990570831134619
1.1489417118342537538
1.1493757138749634006
1.1479640461512612415
1.1496124613022198346
1.1500756373420153444
1.1486063315661825257
1.1484439646590853812
1.1494483488891356071
1.1496450889052913791