/*--------------------------------*- C++ -*----------------------------------*\
  =========                 |
  \\      /  F ield         | OpenFOAM: The Open Source CFD Toolbox
   \\    /   O peration     | Website:  https://openfoam.org
    \\  /    A nd           | Version:  12
     \\/     M anipulation  |
\*---------------------------------------------------------------------------*/
FoamFile
{
    format      ascii;
    class       volScalarField;
    location    "0.016";
    object      T;
}
// * * * * * * * * * * * * * * * * * * * * * * * * * * * * * * * * * * * * * //

dimensions      [0 0 0 1 0 0 0];

internalField   nonuniform List<scalar> 
75962
(
299.75175326767367778
299.6215951437889089
299.89347161327509639
299.94857497548758829
300.01923629579738417
300.03392406275617077
299.93805882970303855
299.87168926397879432
299.8647399272945222
299.85871705479098637
299.79143477461030898
299.72469603812612604
299.80949207017363278
299.93591119755876662
299.91899914276956451
299.79128312032077019
299.70519334754794727
299.72712678047258805
299.81190594249017067
299.89668333551873047
299.93428981160604962
299.87982611509039543
299.75453926789191428
299.6461985208771921
299.62760443234509466
299.65430252478427064
299.67025920358548774
299.66931619977924584
299.64206636219211077
299.58313731191583429
299.54274821784332516
299.55630401394665796
299.59927789702896916
299.63219739719647805
299.65838283047708046
299.68231618776337655
299.68361139022653106
299.63582219713822496
299.54593444921118817
299.45156162090228236
299.3917332309213748
299.39576547896825787
299.45725914930193312
299.53061492791044884
299.56586196509681486
299.53139057505308074
299.43182022585773439
299.32071903203114971
299.26994287546625628
299.31763931612954366
299.43159903740507843
299.54333211144512461
299.6010764879908379
299.585534207509113
299.50710427287231141
299.40009132038494499
299.30197956943811732
299.23097082590390983
299.18495483913693533
299.15901871665312228
299.1507826671620478
299.15158660050173012
299.1469833743042841
299.11880022051190053
299.06283483115043964
299.00770357709791369
298.99310117107989981
299.03987519406530282
299.12916146987430466
299.21765150182699244
299.2701069386674817
299.28219540298783841
299.27088357496620574
299.24911356578292043
299.21675846807920607
299.16726318817200081
299.10333999578267594
299.04209774149853729
298.99727809060993877
298.96793728318374406
298.9437080427188107
298.91595876988117197
298.8833035957891866
298.84743059583041713
298.81619331634129821
298.80368558893519548
298.82662249653390063
298.889663254205459
298.97374109927636709
299.05172824719750224
299.1048637369468679
299.12605393063142856
299.11170546687827709
299.05875710499469733
298.97217157405651733
298.87347491528583987
298.79452230000384816
298.76014961226081823
298.77378227549013445
298.81382528908170571
298.84836974312258917
298.85814406643663688
298.84470292394104263
298.81920403471372083
298.79123226593503659
298.76379892699901575
298.74001566777178596
298.72863039689002562
298.74186643069077718
298.78691810845998589
298.85733141142037539
298.92976980384958097
298.97508702172217454
298.97738146198457798
298.94415274021866935
298.90013554376906768
298.86703282373798629
298.84930708468471039
298.83925309696371642
298.82791550177438467
298.81239515169124843
298.79385847940608301
298.77277112724880226
298.74748003995227918
298.71940013090335242
298.69670567248897441
298.69216664063196731
298.71592597322762686
298.76778834887005587
298.83623993245799966
298.90191403795324732
298.94454337693957768
298.95143768353887026
298.92300331334524799
298.87293150456889634
298.8220485887460427
298.7915962928781255
298.78757841902114478
298.80315553624512859
298.82108460857148202
298.82747160184533186
298.82109479849748368
298.80771028241071008
298.7942968688576002
298.78425112394228336
298.7767297968115372
298.76846625424548165
298.75560427505422467
298.73518732539673692
298.70702495246899844
298.67268259068231373
298.63623775298805185
298.60322562086963671
298.5781003847311581
298.56445183739214144
298.56534132653365532
298.58215332970064537
298.6131444655330256
298.65176004284927558
298.68692812215755339
298.70863022648353535
298.71068833600782
298.69124288792659172
298.65119794071802062
298.59407888492654592
298.52647682875260671
298.45721268873035115
298.39686591525804715
298.35172942895263759
298.32140794212949686
298.30052934115889229
298.28462620848495135
298.27138238241980162
298.26139128997516536
298.25647770365094402
298.25799065655525055
298.26599324047776918
298.27788679923457948
298.28770432198166418
298.28804859893210732
298.27375337252391319
298.2450734419274454
298.2079617397042739
298.17027822666295833
298.13729600925898922
298.10970339261388062
298.08441054106322099
298.057446006562202
298.21676540463209903
298.25736628598150446
298.29827755549627
298.33400014098486963
298.36108480629815176
298.37881104375128416
298.38906702268610616
298.39429608575204611
298.39515118569744345
298.38994204105534891
298.37615478337488639
298.35311237460990696
298.32336828496960379
298.29284574913896222
298.26867921177989729
298.25566369938354683
298.25432219970696224
298.26088980259083883
298.26948083573063286
298.2754771509856937
298.27817348390101415
298.28121542343205874
298.2905593154096664
298.31202354774882224
298.34827767342068228
298.39725237431673577
298.4529760791181161
298.50699561896811929
298.55034882957829723
298.57614307210280913
298.58102530173368905
298.56607181613185276
298.53619691428065153
298.49919727445251283
298.46381322457244778
298.43807800786379403
298.42714566813288002
298.43184037495353778
298.44865832392304128
298.47052657721434343
298.49008768571093242
298.50175915656490133
298.50364310330223816
298.4974673913928882
298.48772230852813436
298.4795539886610527
298.47717325840557123
298.48360428187885418
298.5005803773743196
298.52833249903682145
298.56556309175755359
298.60938370917261864
298.65517325286117511
298.69745762238926545
298.73127688357254783
298.75356344300735145
298.76388756130199909
298.76433943819819206
298.75861144568057171
298.75056790919853711
298.7427804861077334
298.73616646114322748
298.73036499926166698
298.72510523990837328
298.72112249086058
298.72047191970966651
298.7256095357034269
298.7382768570126359
298.75779345560073352
298.78083728039484868
298.80299038919611121
298.81986085131887876
298.83004764549940546
298.8351478009924449
298.83925091545091846
298.84691795886135424
298.86115673686350647
298.88254924565870851
298.90924255984987212
298.93779206504547119
298.96496268865632828
298.9892374472263441
299.01058091655409044
299.03033888077004576
299.05050358455667947
299.07248162465805308
299.09679337084799045
299.1226626989469537
299.14848522397778652
299.17246242301933989
299.19316239599834262
299.21021257860110154
299.2237127466032689
299.23396472894279441
299.24097402785434952
299.24406544752406489
299.24220615380590971
299.23473759775197323
299.22199447178968512
299.205836558019314
299.18954641776167591
299.17756313195218354
299.17453671800114989
299.18451590217262037
299.20990558836388118
299.25087203613935571
299.30522743314855916
299.36875002435590432
299.43570666855544005
299.49966810308859522
299.5550738604447929
299.59764385765811312
299.62503703973214897
299.63719213850811229
299.63589628366520401
299.62471033580141011
299.60802803759685276
299.59092226848702012
299.57809502898140863
299.57368847089128394
299.57973248869222971
299.59598642998633977
299.61973972905167329
299.64618509350339082
299.66972302086753643
299.68572975279295179
299.69090152603905608
299.684899448112958
299.66995407294490406
299.64920011709568826
299.62686079951413376
299.60692055634513054
299.59253497287056689
299.58623669255365485
299.5898131346681339
299.60428030720555626
299.62949191217825273
299.66403900805551075
299.70507142799749545
299.74833406590602181
299.78872497463271429
299.82137769686534057
299.84268775406701479
299.85094268890861713
299.84670661543941605
299.83254510552490046
299.81251074267782997
299.79130367994389417
299.7733513677864039
299.76225369803626108
299.76030022572058442
299.76802257053736867
299.78500539151150406
299.8089305595389078
299.83757442104098345
299.86678388427134223
299.89317073459341145
299.91299800410916987
299.92294693216388168
299.9216264257896114
299.90955821223155908
299.88890437308094761
299.86330814425457447
299.83742570281202688
299.81619691858384158
299.8034017282849959
299.80129631021128489
299.80980559741357183
299.82683242832143833
299.84900739561135197
299.87234392934203697
299.89356925166771362
299.9104672433588803
299.92233929395752057
299.92958995755714113
299.93341494039680128
299.93550027208112851
299.93779448096057649
299.94235577101619583
299.95098624876061422
299.96490623271711229
299.9844675965599663
300.0086092698113589
300.03475112974609829
300.05927878911143125
300.07749727341342805
300.08513252297831286
300.07940608183508857
300.05976853841434604
300.02807928798478088
299.98846361598390331
299.94647813519833335
299.90798271515558326
299.87817397782310991
299.8606819055017354
299.85722959190815118
299.86762200550248281
299.89012514512899088
299.92199054440089867
299.96006471215542888
300.00138650672715812
300.04348589496328259
300.08431476627191614
300.1223875175552962
300.15647680951315124
300.18562659549513683
300.20918607885880647
300.22698695522711887
300.23971664630943224
300.24876603763203775
300.25614016313153343
300.2642131684029323
300.27508308294466133
300.28976321898318247
300.30829346513002065
300.32904284304993325
300.34918960243351194
300.36556746128405848
300.37524965670195343
300.3761410309148232
300.36755488473983178
300.35049805364383246
300.3274914454653981
300.30205440801222494
300.27812254013826987
300.25937000975596902
300.24856913229581323
300.24703159410887565
300.25471882046048222
300.27036629323106354
300.29178211083848282
300.31615107777827234
300.34068239304042436
300.36292521061812977
300.38130524225880436
300.39522304009693698
300.4051345633802157
300.41237896750448044
300.41911253184434827
300.42786939393812418
300.44110960934301602
300.46083027965147494
300.48809282913850893
300.52272943887447809
300.56330145748711402
300.60732598137582272
300.65150817953281148
300.69226084009221722
300.72636131506772017
300.75138798729375367
300.76602747008757888
300.77022628008836591
300.76515866622111162
300.7529993980982681
300.0192666774532313
300.10146540745864741
300.13466114594251621
300.12275969657554242
300.0676831699312288
299.81922689359680589
299.66442794951626638
299.71469209712773818
299.79289120977722405
299.88294468107108059
299.93863381778982102
299.91641757734879548
299.93134550260327842
299.98783547245000136
299.95942114951458279
299.83936907246254577
299.77632977378868873
299.82593101757879595
299.89965402629223945
299.95115162198214875
299.97477772939907936
299.91944725255109461
299.77676061188765289
299.65251542264252294
299.64049399285880781
299.68094634843794211
299.69233558755462354
299.66855409481371453
299.62314427360252012
299.5657205333312163
299.53890658733809005
299.57161525929518575
299.63219580971207279
299.68163641676130737
299.71489721588210386
299.73067733546400859
299.70622199071965497
299.63155242563112779
299.53032542707882158
299.43302848648590953
299.36758261443281981
299.36572692546047847
299.42839980857837645
299.52069898068543807
299.580513682527112
299.55835373596715954
299.46066764877957667
299.34864147706110771
299.29295241911052017
299.32346194891050573
299.41411629295112107
299.51031359414065491
299.5644137630696946
299.55067327835052993
299.4750218717093162
299.37123923915146406
299.27894782856304801
299.21525267575634643
299.1786100441940448
299.16478606715753585
299.17008505181786404
299.18316252482173923
299.18863590298445843
299.17101047112657852
299.12424177339136122
299.06650733022200939
299.03696945962394693
299.06795728745345286
299.14914235557620259
299.23498725132833442
299.28511281610923334
299.28923548103739449
299.26435252027522438
299.22933542954973518
299.1894766168019828
299.13980848396448664
299.08380261817336532
299.03509302023297778
299.00593831122756683
298.99294312167450016
298.9792567209864842
298.9524988175126623
298.91326975429331014
298.8686218679886224
298.83004854260150296
298.81243722924017447
298.83032334481919179
298.88454842867258776
298.95761112052520048
299.02513632234041552
299.07035931164665499
299.0843210326356143
299.064135831168187
299.00885726304704804
298.92666801496397966
298.83804638547815102
298.77091882913805421
298.74832328677280202
298.77314833336242827
298.82354724111553423
298.86584701952506293
298.87679022078873459
298.85800556391683358
298.82699150953715161
298.79624802764902824
298.76632590091526254
298.73576787792489995
298.7138732122316469
298.71886746336809892
298.7634154920497167
298.83956990313498636
298.91775033521975047
298.96322039867902731
298.95961041073485376
298.91943838377028442
298.87177858870722957
298.84092416062441089
298.83322478995029314
298.83942866579593556
298.84665913898430745
298.84717467209918595
298.83765965244725749
298.81724280801455507
298.78616697820763193
298.74978676434449198
298.71676687570186459
298.69928514384906748
298.70734763103695286
298.74297203346549168
298.79865787021992674
298.85895047926203461
298.90620667038814418
298.92656670810691821
298.91690736182067667
298.88479611304222772
298.84589605341801644
298.81595678126728899
298.80218467946065175
298.80127974811239255
298.80355726144154005
298.8003887615635108
298.79197655160896829
298.78293465053445743
298.77686321141254666
298.77498214784532138
298.77353717591557825
298.76754002918698916
298.7533351949564917
298.73091677179462522
298.70242514528945321
298.67064022140027646
298.63868684638794093
298.60881004529426264
298.58214558600224109
298.5609498079044215
298.54979055812657407
298.55326188796345832
298.57354770024568325
298.6075421549472253
298.64564594183474355
298.6758283024230991
298.68796673677144327
298.67650102747745677
298.64089894249377721
298.5856678073864714
298.52041637785401917
298.45626117709838354
298.40256925519190645
298.36386601873550717
298.33847223004892157
298.32029499797675953
298.30536107513279376
298.2920757883170495
298.28129184139334029
298.27504325178949784
298.27522134419660915
298.28232407900657108
298.29385571446687209
298.30328118013585481
298.30245390062401611
298.28613184441951489
298.25478982262120553
298.21462770288667343
298.17393178714814894
298.13860360638335578
298.10942895632513228
298.0845409955239802
298.06054543237928556
298.03655314525406084
298.21006187115591501
298.24294039430134262
298.27840927487073941
298.31281223551189896
298.3430726686736989
298.36663986666894743
298.38339254771830156
298.3942246193443566
298.39987713189577789
298.40023011964734678
298.39333663963031995
298.37781468127559492
298.35417214386160367
298.32588917735341738
298.29886199131465219
298.27927163937584965
298.27070570215983025
298.27273751830159654
298.28131563249672809
298.29108295483740676
298.29805955623663749
298.30138630886261808
298.30416332021320613
298.31184535419021131
298.33000473254469398
298.36119341080251388
298.40360268154103096
298.4517070690084779
298.49755791960035367
298.53352285027608559
298.5541194442705546
298.55715409395850202
298.54394455124759133
298.51914445735337722
298.48928308445147195
298.46190616816232932
298.44349023849429159
298.43871795868710706
298.44868601114131934
298.46942750442894976
298.49430004352751666
298.51583726517333162
298.52849018297212069
298.53066751519844502
298.52428487018840997
298.51435718179129708
298.5058613247018684
298.50253727646378366
298.50682515427212138
298.51958672511375426
298.54099532949203422
298.57045964395848614
298.60626316497109656
298.64523416764234298
298.68296023900080627
298.7148632768704033
298.73766566479719131
298.75027152037966971
298.75379359490165143
298.75095962006616901
298.74492407101683966
298.73811562869872205
298.73133924944824003
298.72463015592438751
298.71834709625989035
298.71396367445692022
298.71424132480609615
298.72223436305824862
298.73921749355946531
298.76431547600600425
298.79312660726907325
298.82084850623493821
298.8424794542319205
298.85615977334759918
298.86376899223347436
298.86928692298135957
298.8768339006169299
298.88898383233481582
298.90597126540535555
298.92623095997481641
298.94732594229560618
298.96727317350848807
298.9856512143942382
299.00328732724796055
299.02116406459214204
299.04033236140566032
299.06124532814880013
299.08321752702642016
299.10503718514775073
299.1252569614280219
299.14294995240493336
299.15802708502758378
299.17138784963077569
299.18395373235097168
299.19647225377730138
299.20875488036733714
299.21959411720814614
299.22715097273555784
299.22975536321945356
299.22667966952974439
299.21873321128663292
299.20843120102961166
299.19958743332790618
299.19654519469645493
299.20319810442913422
299.2223673461004978
299.25505801739666367
299.30005442405990834
299.35426919013571023
299.41296600787592297
299.47053647682588462
299.52154189831355779
299.56168689381064496
299.58856410996509112
299.6016660478227891
299.60246368257600125
299.59433826096426401
299.58154301003503406
299.56870628506669618
299.56039360823405104
299.56017406961439065
299.56990443077756936
299.58922553357461993
299.61527365251873789
299.64384152630606195
299.66965741182860938
299.68769681943501837
299.69530196490364915
299.69193380839953988
299.67912098300763546
299.6598587979570425
299.63744927899676895
299.6154691945262698
299.5973473107531504
299.58590142632772313
299.58380938686167383
299.59314004665446873
299.61487013188622086
299.64811938701649296
299.69008249652694076
299.73603378878482317
299.78011335832530904
299.81629640606064413
299.84003887786366249
299.84911536837381618
299.84414164204906683
299.82807541019514019
299.80563293244654233
299.78227596973755453
299.76327084295303393
299.75259794350904485
299.75275296336019437
299.76375833021864992
299.78449736572628126
299.81181374320732402
299.84193049100588269
299.87067642147150082
299.89415840787540901
299.90864730557757412
299.91212947205229966
299.90445407920083198
299.88677345716979517
299.86194932993970497
299.83401566573968466
299.80771981411930938
299.78801091861919303
299.77835609353599011
299.78032077997232818
299.79339380648542601
299.81490296954160613
299.84067448382364773
299.86633440947872487
299.88821080058789903
299.90402048645501054
299.91307293270756418
299.91616440531601029
299.91511381327217123
299.91216710726342853
299.9097471308351146
299.91051775063101559
299.91668391803864324
299.92990065812682587
299.95056133606902904
299.97763856373575209
300.00830535855084236
300.03830890006310028
300.06251320991293596
300.07614264344147159
300.07599604029053353
300.06120474352564997
300.03360704447737817
299.99727856213360155
299.95758194012296372
299.92043034428149895
299.89103513277552793
299.8730201884844746
299.86821149550451082
299.87663457218781105
299.89681727935402478
299.92630911949174788
299.96228084064813402
300.00188891642739009
300.04260187897244805
300.08216542525553905
300.11863828998747294
300.15039275400732777
300.17640787341861142
300.19619214754141012
300.20994178027336829
300.21874733671046442
300.22450807089597902
300.22968257020306737
300.23672112807525991
300.2473832620106009
300.26250227616327493
300.28132832121974616
300.30207466860292698
300.32208153194000033
300.33836662159404796
300.34846867082723065
300.35091091229577387
300.34544543383998416
300.33304786976037803
300.31566738681169682
300.29596025029741213
300.27696007197414474
300.26149292191462337
300.25192905625561934
300.24987361383767848
300.25574575351447493
300.26899907759769803
300.28808356620112363
300.31081379856919966
300.33458907534134141
300.35700323834078063
300.37601395063092014
300.39049557091664155
300.40032381685318796
300.40650415402336648
300.41092579361412618
300.41617303483354817
300.42499714900606023
300.43979018337762454
300.46222285390837214
300.49278760106187747
300.53065961812814066
300.57372015918775787
300.61889714510670046
300.66263167034298931
300.70142087962966571
300.73240498201181481
300.75374855178188227
300.76472393433454044
300.765726197548247
300.75818478612040963
300.12078952005816745
300.27345540268242985
300.19533793174906577
300.1109086255640932
299.98735853108325955
299.88487550204519039
299.90781454864139732
299.91308903358509497
299.88340026664940297
299.98452556990378071
300.10369793763157986
300.10587816241985593
300.04405356846814357
300.01268146917436752
299.97284674806041949
299.902223951920746
299.89281611880682021
299.95455656271872158
299.98695007258714895
299.9831562985839355
300.00065911030173993
299.98357512273872771
299.85939077531418206
299.72357063621211637
299.6985573158934244
299.74167258221677912
299.74712087113374537
299.69361044800166383
299.62529785525703119
299.56703480309857923
299.54302964710012702
299.57600079536081239
299.64845419810615113
299.72683670536173395
299.78200236312807192
299.79118264368895552
299.73695552048604895
299.63244990625287301
299.50869754865891537
299.39576241767025522
299.3270945022315459
299.33109324127639184
299.41081185265147724
299.52422213551648156
299.5942528544053971
299.56642613322873103
299.45909935360543841
299.34436145267807206
299.28947428737154723
299.31562433086361352
299.39672568532080277
299.48491964597741344
299.53391789713992921
299.51525900542696945
299.4334098765718295
299.33058932543542596
299.25280665084477505
299.21809161386266851
299.21516726901336369
299.22418364350414777
299.22968009587714278
299.22386916808341084
299.20541625121524021
299.1759990730254799
299.13510293202347157
299.08910829272258525
299.06740919208971263
299.09838574938657985
299.17733740445419244
299.26223456498240694
299.30783606018479759
299.29961701459592405
299.25565771660501468
299.20475539556116473
299.16201395992482048
299.12612892602129477
299.09525052714201365
299.06852072023457367
299.04669866141847479
299.02277422112200611
298.98955313795369193
298.94621523801487228
298.89835087283427129
298.85331321304607854
298.81885000244233197
298.80490697398067823
298.82081466168727957
298.8671387277253757
298.93182710800277846
298.9959583668447749
299.04369175821204863
299.0604526251395896
299.03770695844036709
298.9786633734707948
298.89933311481581768
298.82118786554201506
298.76694007048399726
298.75411722507482182
298.78271610140905068
298.83062731152688229
298.8646149866660835
298.86421362221494746
298.83380771250944008
298.79350456076792852
298.75807152542205358
298.72925000482780433
298.70511268543151573
298.69608345311166886
298.71826787792304003
298.77881738993386307
298.86347919493226755
298.9399207744657474
298.97454268712095882
298.95760735087861804
298.90639979812135607
298.85209816473360434
298.82013025549764507
298.81874031006282166
298.83871845078732576
298.86192952712804072
298.87339236850840507
298.86674391625206226
298.84415163785342884
298.81170565262306127
298.77526528055108201
298.74286715598179853
298.72413564022235732
298.7272697487949813
298.75512491293744688
298.80133267848941614
298.85040518176521118
298.88586271484319923
298.89759759014964402
298.88510966561591431
298.85729869369373546
298.82762219322989949
298.80506886080007689
298.79387323036030466
298.7921526983340641
298.79415525975662149
298.79331343992612346
298.78571098496558989
298.77216876161844539
298.75612616589074833
298.74195370360729385
298.73149843288410921
298.72298927738631846
298.71382172169825253
298.70125200782496222
298.68467049719123452
298.66526194306396746
298.64296520824490244
298.6162387113964769
298.58458653403721428
298.55088069204333578
298.5231067226204118
298.51099429940637719
298.52057254664259744
298.55107570392578964
298.59324451813455426
298.63188380819951817
298.65254151220915446
298.6463360143080763
298.61264859736957078
298.55867097624241069
298.49662989571203298
298.43982924551670521
298.39703591420288831
298.3709050337492954
298.35788505834847228
298.35143574099981834
298.34570560838892561
298.336745262183058
298.32369571378399087
298.30870334807906374
298.2959767723291975
298.28918943541907538
298.28811989571630647
298.28776143515693775
298.28010195184083386
298.25966775579740897
298.2268437432733208
298.18673799346407804
298.14607107102079908
298.11023243941849614
298.08047050709461701
298.0558646922997923
298.03568321632531024
298.01997580744284733
298.22690936124877226
298.25445951725089344
298.28336282995451256
298.31263309641843762
298.34053035218539662
298.36560307614678322
298.38604719344084515
298.40061469609207734
298.4075484421663873
298.40516230488816518
298.39277863962610127
298.3712878777662354
298.34385243482199712
298.31580454728543828
298.29329418310913979
298.28112708174120371
298.28055541809641227
298.2899359230528944
298.30454387551435502
298.31876182443824064
298.32889459089716411
298.33419298769530315
298.33759649073203946
298.34435745550496222
298.35956814401345127
298.38580437904687415
298.42163261904369165
298.46180897061503856
298.499436067757415
298.52770796147058263
298.54217817134747293
298.54168584066002268
298.52818590859868664
298.50588321720329077
298.48088874595094921
298.45969557839532627
298.44821122055770957
298.45001294394393199
298.46521205568325286
298.49040375365848377
298.51818200639189627
298.54099397366923085
298.5536389786205973
298.55474478599830945
298.54743654093607574
298.53680207336498142
298.52774685016777312
298.52376318562477309
298.52661881339969341
298.53686354369312994
298.55488620876946015
298.58048617648194067
298.61249129081585352
298.6485630499553281
298.68481086407018665
298.71686091382071027
298.74090539779331266
298.75519150379477651
298.75995415122065424
298.75714032680434684
298.7499145270805343
298.74091928050603428
298.731542264735765
298.72255632847151219
298.71449089560741186
298.70994544653552794
298.71160034218189594
298.72273832134527538
298.74429619610037889
298.77462973142542069
298.80907965518969149
298.84143622032280518
298.86611862332944156
298.8808033368511019
298.88654823078780964
298.88694877935148497
298.8863254542394543
298.88798717081101586
298.89342340265119446
298.90236437035679273
298.91416272436703139
298.92838819946979356
298.94504093619462992
298.96455899979980586
298.98723298457571218
299.01253837148107095
299.03940743045831141
299.06631118077172005
299.09136651900195147
299.11291168368700255
299.13008254566693722
299.1434437482128601
299.15428775145858253
299.164187690076119
299.17441249747878373
299.18500093103261861
299.19470609318472043
299.20148578819805607
299.2032859261704516
299.19914574612744218
299.19008527054603519
299.1791287197002589
299.17067944886179021
299.16951052312327874
299.17958285137967778
299.20332378553877106
299.24092435755761699
299.290309260596473
299.34735070583383276
299.40656053982968388
299.46209721363317158
299.50867703011624599
299.54294550496308602
299.563733276859125
299.57178905616507336
299.56973347340317559
299.561581376136985
299.55169936408344711
299.54431467230892849
299.54294618785485227
299.54993965880845508
299.56598642407954003
299.58984241269945414
299.61824162955480233
299.64646921446927763
299.66985707199660283
299.68448292936102462
299.68853455766503657
299.68237147004481358
299.66824780592190791
299.64946402957866667
299.62962334728041469
299.61184245915575275
299.59894296073127862
299.59317630776376973
299.59677894767258977
299.61126147479075144
299.63708564241716203
299.67284203410173404
299.7152743806404942
299.75908081096537217
299.79809231909251821
299.82648919161186996
299.84020033048233245
299.83790759266156556
299.82163821567928608
299.79593831910739254
299.76686699792588797
299.74085062420874692
299.72354715509897005
299.71887302461010449
299.72789252489894807
299.74992546335550969
299.78107675817500422
299.81656650800164243
299.85069896696501246
299.87844166394546619
299.89552934352269631
299.90004056550839096
299.89206629278697847
299.87345839142187742
299.8474471700714048
299.81836447331914997
299.79112779609505424
299.77011757713319184
299.7586306961583773
299.75873179739426178
299.77006496566360738
299.79019982917373
299.81525674168159412
299.84060535368257661
299.86227103033786534
299.8772961664160448
299.88491944500350428
299.88598574563820875
299.88251188690082927
299.87727884177371607
299.87321528052649455
299.87283303779423704
299.87811515485429936
299.89040119819435404
299.91029260957066072
299.93720395058613803
299.96934258890900082
300.00361243786983323
300.03555189584147911
300.06017701276249454
300.07315062538998518
300.07160067972625939
300.05514999194508619
300.02622556273172449
299.98955886835221918
299.9511962355900323
299.91726554372860392
299.89276452975764187
299.88088877806478649
299.88257701701041924
299.89672684920930124
299.92084047292854621
299.95172206976070584
299.98603574176672737
300.02083878267831096
300.05394134367838888
300.08376995480205096
300.1094212929507421
300.13049330763823264
300.14713175155645786
300.15988739285671727
300.16980400325417122
300.17831012335045671
300.1870072338956561
300.19733272691848924
300.21045168270063641
300.22658478896943279
300.24538917982852126
300.26549087070617361
300.2847024656149415
300.30066887357071437
300.311222531277906
300.31489126007033974
300.31136388351546884
300.30157270813458581
300.28749086105125343
300.27165305407532969
300.25687330340707604
300.24579854638244569
300.24047402666991502
300.24202727067842034
300.25055489516677198
300.26533146113507655
300.2846845835597378
300.30642812715342416
300.32807231235460677
300.34734187610786194
300.36249734838219183
300.37276743567952053
300.37833368996228955
300.38046460646728519
300.38123103950550785
300.38327768372329274
300.38931151253166263
300.40158186145316677
300.42154053366061817
300.44946515667004405
300.48465226487735436
300.52537988100556277
300.56922212183945931
300.61347466703688269
300.65523084477433713
300.69184827480756894
300.72110998680091143
300.74138075418062499
300.75195710944717575
300.75298438162764114
300.74543072645519715
300.73129745012522562
300.09737046320941545
299.94649060384608674
300.15546148018597705
300.2301854428593515
300.04032492109445229
299.90591135324689276
299.88509360544497895
299.84908008044993721
299.88266072069114898
300.04332423808182284