# Residuals      
# Time           	p_rgh            
0                	N/A              
0.00119904       	1.000000000e+00
0.00263616       	4.949094192e-03
0.00435873       	1.039417636e-02
0.00642437       	4.895809646e-02
0.00890212       	1.495019564e-01
0.0118695        	9.909950031e-02
0.0154239        	9.119264257e-02
0.0196861        	9.205365774e-02
0.0247919        	8.008361482e-02
0.030887         	6.755801770e-02
0.0381736        	6.035674433e-02
0.0469174        	5.627226328e-02
0.0573909        	5.087548024e-02
0.0688861        	4.471011181e-02
0.0821877        	4.021030725e-02
0.0938056        	2.665100349e-02
0.107132         	2.517393742e-02
0.11888          	1.712721701e-02
0.132436         	1.808112546e-02
0.14432          	1.378167178e-02
0.157903         	1.496887947e-02
0.169933         	1.229134718e-02
0.18354          	1.334411433e-02
0.195547         	1.097231207e-02
0.209182         	1.187238602e-02
0.221348         	9.941448085e-03
0.235009         	1.056988040e-02
0.247151         	8.808620786e-03
0.26084          	9.375207143e-03
0.272957         	7.790001311e-03
0.286675         	8.350452759e-03
0.298765         	7.036455078e-03
0.312515         	7.625630664e-03
0.324576         	6.199886407e-03
0.33836          	6.635863851e-03
0.350613         	5.457942116e-03
0.364429         	5.927262641e-03
0.376652         	5.225428903e-03
0.390203         	6.473029409e-03
0.402399         	4.519225223e-03
0.415981         	4.250112395e-03
0.428148         	3.824937358e-03
0.441763         	4.156209033e-03
0.453899         	3.601747589e-03
0.467551         	3.855550665e-03
0.479653         	3.298116993e-03
0.493346         	3.529317989e-03
0.505703         	3.227849420e-03
0.519434         	3.621952755e-03
0.531756         	3.254410714e-03
0.545134         	3.376404020e-03
0.557428         	2.977541449e-03
0.570839         	2.854451610e-03
0.583101         	2.709146422e-03
0.596549         	2.916491317e-03
0.608775         	2.670263043e-03
0.622266         	2.864523485e-03
0.634451         	2.544283629e-03
0.64799          	2.621389151e-03
0.660128         	2.198739703e-03
0.673723         	2.628526014e-03
0.685807         	2.405666085e-03
0.699468         	2.603986198e-03
0.711489         	2.225373796e-03
0.724603         	2.274241862e-03
0.736577         	2.031843440e-03
0.749748         	2.032345618e-03
0.761665         	2.046951586e-03
0.774906         	2.358047009e-03
0.787411         	2.224384325e-03
0.800698         	2.111844520e-03
0.813154         	1.921127195e-03
0.8265           	1.910501421e-03
0.838893         	1.676833770e-03
0.852319         	2.017678347e-03
0.864625         	1.985882185e-03
0.878163         	2.027135877e-03
0.890347         	1.667134909e-03
0.90253          	1.562114964e-03
0.914714         	1.509427513e-03
0.926898         	1.473648616e-03
0.939081         	1.702014892e-03
0.951265         	1.732214800e-03
0.963449         	1.675022961e-03
0.975633         	1.475499779e-03
0.987816         	1.408599441e-03
1                	1.279202845e-03
1.0125           	1.379483108e-03
1.025845         	1.639122920e-03
1.038334         	1.626052696e-03
1.05169          	1.613023146e-03
1.064168         	1.363315090e-03
1.077537         	1.296256859e-03
1.090003         	1.121907307e-03
1.103385         	1.372215202e-03
1.115838         	1.448138395e-03
1.129234         	1.515343707e-03
1.141674         	1.331255537e-03
1.155085         	1.253663650e-03
1.167696         	1.077431569e-03
1.18112          	1.104991344e-03
1.193718         	1.239472359e-03
1.206936         	1.358608190e-03
1.219524         	1.303399078e-03
1.232753         	1.206637968e-03
1.245331         	1.042510460e-03
1.25857          	9.550063413e-04
1.271137         	1.071386311e-03
1.284389         	1.247993091e-03
1.296944         	1.246816737e-03
1.310209         	1.222198478e-03
1.322751         	1.050227067e-03
1.33603          	9.091538533e-04
1.348558         	9.006503525e-04
1.361852         	1.127352136e-03
1.374365         	1.169225234e-03
1.387677         	1.209662113e-03
1.400173         	1.077761767e-03
1.413502         	8.744651477e-04
1.425981         	8.180715829e-04
1.439027         	9.295367594e-04
1.451493         	1.056666434e-03
1.464553         	1.115689203e-03
1.477005         	1.058051303e-03
1.49008          	1.060632169e-03
1.502517         	8.227380077e-04
1.515609         	8.549675980e-04
1.528029         	8.498145533e-04
1.541139         	8.891254350e-04
1.553541         	8.289724646e-04
1.566672         	8.253710036e-04
1.579053         	7.706930282e-04
1.592207         	8.012570872e-04
1.604565         	8.305768089e-04
1.617746         	9.067707766e-04
1.630077         	8.398880666e-04
1.643288         	8.124520719e-04
1.655589         	7.192326908e-04
1.668835         	8.106083760e-04
1.681101         	8.373485943e-04
1.693857         	8.334835085e-04
1.706102         	8.040943143e-04
1.71888          	7.964796242e-04
1.731103         	7.847162239e-04
1.743908         	8.691253012e-04
1.756103         	8.186298814e-04
1.768939         	8.313103424e-04
1.7811           	8.026526209e-04
1.793977         	7.745571796e-04
1.806096         	7.177373881e-04
1.819023         	7.419045717e-04
1.831088         	7.321836451e-04
1.844081         	8.188350368e-04
1.856075         	8.004666123e-04
1.869159         	8.803598077e-04
1.881054         	8.108332250e-04
1.892948         	6.602862084e-04
1.904843         	6.469239180e-04
1.916738         	6.811955240e-04
1.928632         	7.572450224e-04
1.940527         	7.818145688e-04
1.952421         	7.873967610e-04
1.964316         	7.664971933e-04
1.976211         	6.572402906e-04
1.988105         	6.138812172e-04
2                	6.881452917e-04
2.013158         	7.596509950e-04
2.02581          	7.735861484e-04
2.038799         	8.121425129e-04
2.051446         	8.372384730e-04
2.06444          	6.872377169e-04
2.077083         	6.627644336e-04
2.090082         	7.384022186e-04
2.102719         	7.933718654e-04
2.115724         	8.363081780e-04
2.128356         	8.312400668e-04
2.141366         	7.774695008e-04
2.153993         	6.863149860e-04
2.167008         	7.285231231e-04
2.179629         	7.664430204e-04
2.192651         	7.925585090e-04
2.205266         	8.344253711e-04
2.218294         	8.023462852e-04
2.230902         	7.089741752e-04
2.243938         	6.869849369e-04
2.256539         	7.234566523e-04
2.269582         	7.920287219e-04
2.282176         	8.172020080e-04
2.295227         	8.412155996e-04
2.307812         	6.714082123e-04
2.320872         	6.607254057e-04
2.333449         	7.208600955e-04
2.346518         	7.736228579e-04
2.359085         	7.810524441e-04
2.372165         	7.757440204e-04
2.384722         	6.714309181e-04
2.397813         	6.613957402e-04
2.410359         	6.857800640e-04
2.423462         	7.417633696e-04
2.435995         	7.207582093e-04
2.449111         	7.783281341e-04
2.461632         	6.936947491e-04
2.474763         	6.602204274e-04
2.487268         	6.604940938e-04
2.500087         	6.854252041e-04
2.512584         	6.924333032e-04
2.525411         	7.425148925e-04
2.5379           	6.924829751e-04
2.550736         	6.426303422e-04
2.563216         	6.298796081e-04
2.576063         	6.566342357e-04
2.588531         	6.723134919e-04
2.60139          	7.247112593e-04
2.613846         	6.733770865e-04
2.626718         	6.297159884e-04
2.639161         	6.132338797e-04
2.652048         	6.294714692e-04
2.664475         	6.308198337e-04
2.67738          	6.987298365e-04
2.689788         	6.855387465e-04
2.702714         	6.168080260e-04
2.7151           	6.023401128e-04
2.72805          	6.109000352e-04
2.740412         	5.971911330e-04
2.753391         	6.821168524e-04
2.766371         	6.969548093e-04
2.77935          	6.119177383e-04
2.792329         	6.221600566e-04
2.805309         	5.993065273e-04
2.818288         	5.926099473e-04
2.831268         	6.449049286e-04
2.844247         	6.668606930e-04
2.857226         	5.812936606e-04
2.870206         	5.799354450e-04
2.883185         	5.660499298e-04
2.896165         	5.740915623e-04
2.909144         	5.964132627e-04
2.922124         	6.357357378e-04
2.935103         	5.664776627e-04
2.948082         	5.708189477e-04
2.961062         	5.606946114e-04
2.974041         	5.685634737e-04
2.987021         	5.765154741e-04
3                	5.882514018e-04
3.013333         	5.623408169e-04
3.026667         	5.596243488e-04
3.040185         	5.656644694e-04
3.053704         	5.762975766e-04
3.067222         	5.986851709e-04
3.080741         	5.913234593e-04
3.094259         	5.323172765e-04
3.107778         	5.458572803e-04
3.121296         	5.438044885e-04
3.134815         	5.526635648e-04
3.148548         	5.840764203e-04
3.162281         	5.634014516e-04
3.176014         	5.029870732e-04
3.189747         	5.224341713e-04
3.20348          	5.200238473e-04
3.217213         	5.444920343e-04
3.230947         	5.615337188e-04
3.24468          	5.281314721e-04
3.258413         	5.123468907e-04
3.272146         	4.986372263e-04
3.286143         	4.952575850e-04
3.30014          	5.372228647e-04
3.314137         	5.488819209e-04
3.328135         	5.039766730e-04
3.342132         	5.048114150e-04
3.356129         	5.031372490e-04
3.370126         	4.722720712e-04
3.384123         	4.924056976e-04
3.398121         	4.828375317e-04
3.412118         	4.775134156e-04
3.426115         	4.800895880e-04
3.440112         	4.856124682e-04
3.454109         	4.768655078e-04
3.468107         	4.938585678e-04
3.482482         	4.632507942e-04
3.496858         	4.761668933e-04
3.511233         	4.674670488e-04
3.525609         	4.708691159e-04
3.539984         	4.866062255e-04
3.55436          	4.837843099e-04
3.568735         	4.700478759e-04
3.583111         	4.776060069e-04
3.597486         	4.689930541e-04
3.611862         	4.409977256e-04
3.626237         	4.505916682e-04
3.640613         	4.323539708e-04
3.654988         	4.535001482e-04
3.669364         	4.534902636e-04
3.683739         	4.424970654e-04
3.698115         	4.359247331e-04
3.71249          	3.976373028e-04
3.726866         	4.132164150e-04
3.741241         	4.177873602e-04
3.755617         	4.034056490e-04
3.769992         	4.228067601e-04
3.784368         	4.070765814e-04
3.798743         	4.107682883e-04
3.813119         	4.214564524e-04
3.827494         	4.247300029e-04
3.84187          	4.249609342e-04
3.856245         	4.169787523e-04
3.870621         	3.706542974e-04
3.884996         	3.771643146e-04
3.899372         	4.082571540e-04
3.913747         	4.048768978e-04
3.928123         	4.076311565e-04
3.942498         	3.843256988e-04
3.956874         	3.731387532e-04
3.971249         	3.778952082e-04
3.985625         	3.767720980e-04
4                	3.739761466e-04
4.015152         	3.733177292e-04
4.030303         	3.397829069e-04
4.045455         	3.870675029e-04
4.06085          	4.002932466e-04
4.076246         	4.128169432e-04
4.091642         	3.918357528e-04
4.107038         	3.730739827e-04
4.122434         	3.800725620e-04
4.13783          	3.921032497e-04
4.153226         	3.877659019e-04
4.168622         	3.568920519e-04
4.184018         	3.649271060e-04
4.199413         	3.658047594e-04
4.214809         	3.829579716e-04
4.230205         	3.828710426e-04
4.245601         	3.699562135e-04
4.261318         	3.431773223e-04
4.277034         	3.494150790e-04
4.292751         	3.541051740e-04
4.308468         	3.411643981e-04
4.324184         	3.629603922e-04
4.339901         	3.387958411e-04
4.355618         	3.501886120e-04
4.371334         	3.626251976e-04
4.387051         	3.666724892e-04
4.402768         	3.544914062e-04
4.418484         	3.342183472e-04
4.434201         	3.356743996e-04
4.449918         	3.266526594e-04
4.465634         	3.587539354e-04
4.481351         	3.537315985e-04
4.497067         	3.400686269e-04
4.512784         	3.386696602e-04
4.528501         	3.407987862e-04
4.544217         	3.447121598e-04
4.559934         	3.297462674e-04
4.575651         	3.043753570e-04
4.591367         	3.099023149e-04
4.607084         	3.345457966e-04
4.622801         	3.310529591e-04
4.638517         	3.289531742e-04
4.654234         	3.118769669e-04
4.669951         	3.075774797e-04
4.685667         	3.044929663e-04
4.701384         	3.110626961e-04
4.7171           	3.031601916e-04
4.732817         	2.786526837e-04
4.748534         	2.980335262e-04
4.76425          	3.087539088e-04
4.779967         	3.138634696e-04
4.795684         	3.173842749e-04
4.8114           	3.074283099e-04
4.827117         	3.029615377e-04
4.842834         	3.041305618e-04
4.85855          	3.017710391e-04
4.874267         	2.805478357e-04
4.889984         	2.872247338e-04
4.9057           	2.840185415e-04
4.921417         	2.866121530e-04
4.937133         	2.902260172e-04
4.95285          	2.846046237e-04
4.968567         	2.720455337e-04
4.984283         	2.706749813e-04
5                	2.691790561e-04
5.016129         	2.616820100e-04
5.032258         	2.833501178e-04
5.048387         	2.780121162e-04
5.064516         	2.778702683e-04
5.080645         	2.862830491e-04
5.096774         	2.861966269e-04
5.112903         	2.854331987e-04
5.129032         	2.736005395e-04
5.145161         	2.704946023e-04
5.16129          	2.725696717e-04
5.177419         	2.897512115e-04
5.193548         	2.807833787e-04
5.209677         	2.816278976e-04
5.225806         	2.776586728e-04
5.241935         	2.736186719e-04
5.258065         	2.688939781e-04
5.274194         	2.454347239e-04
5.290323         	2.446340436e-04
5.306452         	2.501813609e-04
5.322581         	2.569586736e-04
5.33871          	2.544329406e-04
5.354839         	2.445250872e-04
5.370968         	2.462694167e-04
5.387097         	2.468311519e-04
5.403226         	2.439905964e-04
5.419355         	2.258216756e-04
5.435484         	2.345415225e-04
5.451613         	2.385314296e-04
5.467742         	2.370583639e-04
5.483871         	2.392223323e-04
5.5              	2.332377263e-04
5.516129         	2.297598618e-04
5.532258         	2.279692303e-04
5.548387         	2.150386692e-04
5.564516         	2.276970856e-04
5.580645         	2.378391426e-04
5.596774         	2.332377638e-04
5.612903         	2.370051269e-04
5.629032         	2.397271180e-04
5.645161         	2.405376118e-04
5.66129          	2.266712894e-04
5.677419         	2.145873533e-04
5.693548         	2.261717847e-04
5.709677         	2.258021982e-04
5.725806         	2.236295267e-04
5.741935         	2.151927922e-04
5.758065         	2.076384711e-04
5.774194         	2.105752218e-04
5.790323         	1.934147853e-04
5.806452         	1.890571945e-04
5.822581         	1.949507246e-04
5.83871          	1.916798193e-04
5.854839         	1.907547277e-04
5.870968         	1.921161102e-04
5.887097         	1.899753344e-04
5.903226         	1.900722041e-04
5.919355         	1.822996687e-04
5.935484         	1.695965735e-04
5.951613         	1.872217692e-04
5.967742         	1.891877126e-04
5.983871         	1.815259471e-04
6                	1.846183244e-04
6.016129         	1.805893560e-04
6.032258         	1.788909088e-04
6.048387         	1.786641251e-04
6.064516         	1.602123868e-04
6.080645         	1.730577168e-04
6.096774         	1.774115858e-04
6.112903         	1.798791377e-04
6.129032         	1.822035152e-04
6.145161         	1.762943194e-04
6.16129          	1.777150775e-04
6.177419         	1.797358754e-04
6.193548         	1.742568244e-04
6.209677         	1.789101149e-04
6.225806         	1.716126479e-04
6.241935         	1.822692426e-04
6.258065         	1.797950217e-04
6.274194         	1.739719632e-04
6.290323         	1.738319098e-04
6.306452         	1.587292196e-04
6.322581         	1.502443136e-04
6.33871          	1.526673082e-04
6.354839         	1.569086410e-04
6.370968         	1.549221886e-04
6.387097         	1.494148048e-04
6.403226         	1.485120731e-04
6.419355         	1.474729810e-04
6.435484         	1.442772173e-04
6.451613         	1.420015727e-04
6.467742         	1.284132509e-04
6.483871         	1.395459285e-04
6.5              	1.405689509e-04
6.516129         	1.407765413e-04
6.532258         	1.440918484e-04
6.548387         	1.407045304e-04
6.564516         	1.418235663e-04
6.580645         	1.358699031e-04
6.596774         	1.260790558e-04
6.612903         	1.331045096e-04
6.629032         	1.315036015e-04
6.645161         	1.321382954e-04
6.66129          	1.326378016e-04
6.677419         	1.292274950e-04
6.693548         	1.255133116e-04
6.709677         	1.240796346e-04
6.725806         	1.231589882e-04
6.741935         	1.182462562e-04
6.758065         	1.200666945e-04
6.774194         	1.277300232e-04
6.790323         	1.287297379e-04
6.806452         	1.320702881e-04
6.822581         	1.324581684e-04
6.83871          	1.291859505e-04
6.854839         	1.270988283e-04
6.870968         	1.252178793e-04
6.887097         	1.202898164e-04
6.903226         	1.305749373e-04
6.919355         	1.295869132e-04
6.935484         	1.196392153e-04
6.951613         	1.175338999e-04
6.967742         	1.165402932e-04
6.983871         	1.148481218e-04
7                	1.107984419e-04
7.016129         	9.942727621e-05
7.032258         	9.979846675e-05
7.048387         	1.003652347e-04
7.064516         	1.054044253e-04
7.080645         	1.046525517e-04
7.096774         	1.007977405e-04
7.112903         	1.000763660e-04
7.129032         	1.013187347e-04
7.145161         	9.863973841e-05
7.16129          	9.536345449e-05
7.177419         	9.240892563e-05
7.193548         	9.716228714e-05
7.209677         	9.590720071e-05
7.225806         	9.467625217e-05
7.241935         	9.266663402e-05
7.258065         	8.948939618e-05
7.274194         	9.424935384e-05
7.290323         	9.258676444e-05
7.306452         	8.576487337e-05
7.322581         	8.776453400e-05
7.33871          	8.490737973e-05
7.354839         	8.410598468e-05
7.370968         	8.475936280e-05
7.387097         	8.346968273e-05
7.403226         	8.304382056e-05
7.419355         	7.962922332e-05
7.435484         	7.278804618e-05
7.451613         	7.672955277e-05
7.467742         	7.685316407e-05
7.483871         	7.580107806e-05
7.5              	7.443710194e-05
7.516129         	7.208721945e-05
7.532258         	6.854093430e-05
7.548387         	6.876754101e-05
7.564516         	6.911394671e-05
7.580645         	7.146454628e-05
7.596774         	7.289708810e-05
7.612903         	7.394986675e-05
7.629032         	7.368039057e-05
7.645161         	7.201538069e-05
7.66129          	7.370129935e-05
7.677419         	7.324340886e-05
7.693548         	7.435879752e-05
7.709677         	7.702532791e-05
7.725806         	7.730707099e-05
7.741935         	7.691800503e-05
7.758065         	7.806672219e-05
7.774194         	8.032574028e-05
7.790323         	7.208428984e-05
7.806452         	6.810749371e-05
7.822581         	6.508535235e-05
7.83871          	6.257210359e-05
7.854839         	6.042101285e-05
7.870968         	5.966072690e-05
7.887097         	5.779263895e-05
7.903226         	5.411796358e-05
7.919355         	5.373458870e-05
7.935484         	5.303450423e-05
7.951613         	5.096604268e-05
7.967742         	5.081808712e-05
7.983871         	5.153428162e-05
8                	4.790326538e-05
8.016129         	4.629655610e-05
8.032258         	4.667548676e-05
8.048387         	4.705718141e-05
8.064516         	4.423479079e-05
8.080645         	4.411572869e-05
8.096774         	4.185107194e-05
8.112903         	3.993223735e-05
8.129032         	4.050349353e-05
8.145161         	4.035028357e-05
8.16129          	4.020996849e-05
8.177419         	3.829783672e-05
8.193548         	3.365634771e-05
8.209677         	3.222939408e-05
8.225806         	3.067627274e-05
8.241935         	3.031167552e-05
8.258065         	2.970167544e-05
8.274194         	2.834004471e-05
8.290323         	2.716006373e-05
8.306452         	2.756980621e-05
8.322581         	2.779856573e-05
8.33871          	2.775068881e-05
8.354839         	2.879174942e-05
8.370968         	2.844341726e-05
8.387097         	2.565670977e-05
8.403226         	2.392276330e-05
8.419355         	2.354933927e-05
8.435484         	2.286132735e-05
8.451613         	2.169481688e-05
8.467742         	1.950862478e-05
8.483871         	1.775673050e-05
8.5              	1.727991053e-05
8.516129         	1.791506657e-05
8.532258         	1.830201215e-05
8.548387         	1.839442508e-05
8.564516         	1.790823090e-05
8.580645         	1.742302080e-05
8.596774         	1.699376180e-05
8.612903         	1.686014992e-05
8.629032         	1.668607598e-05
8.645161         	1.597700139e-05
8.66129          	1.580580239e-05
8.677419         	1.518285738e-05
8.693548         	1.505005102e-05
8.709677         	1.553130966e-05
8.725806         	1.977222390e-05
8.741935         	1.970877790e-05
8.758065         	1.981111165e-05
8.774194         	1.987490775e-05
8.790323         	1.992144266e-05
8.806452         	1.936158627e-05
8.822581         	1.917942022e-05
8.83871          	1.923864804e-05
8.854839         	1.928556309e-05
8.870968         	1.936490258e-05
8.887097         	1.953974818e-05
8.903226         	1.992602984e-05
8.919355         	2.029996210e-05
8.935484         	2.114462268e-05
8.951613         	2.193631827e-05
8.967742         	2.267349020e-05
8.983871         	2.339088179e-05
9                	2.415168604e-05
9.016129         	2.141661923e-05
9.032258         	1.686148221e-05
9.048387         	1.333618633e-05
9.064516         	1.132865795e-05
9.080645         	1.009073419e-05
9.096774         	9.127826022e-06
9.112903         	8.367115215e-06
9.129032         	7.766056269e-06
9.145161         	7.207372356e-06
9.16129          	7.175369338e-06
9.177419         	7.134911815e-06
9.193548         	7.045631598e-06
9.209677         	6.893834043e-06
9.225806         	6.681572679e-06
9.241935         	6.399147775e-06
9.258065         	6.366601449e-06
9.274194         	6.328067512e-06
9.290323         	6.274366937e-06
9.306452         	6.175660820e-06
9.322581         	6.058504336e-06
9.33871          	5.962810324e-06
9.354839         	5.936405209e-06
9.370968         	5.978264864e-06
9.387097         	6.025529677e-06
9.403226         	6.054606487e-06
9.419355         	6.060109450e-06
9.435484         	6.029967204e-06
9.451613         	5.953987145e-06
9.467742         	5.877635650e-06
9.483871         	5.939508640e-06
9.5              	6.004431096e-06
9.516129         	6.037003649e-06
9.532258         	5.998009183e-06
9.548387         	5.935617618e-06
9.564516         	5.864005791e-06
9.580645         	5.850032835e-06
9.596774         	5.804795987e-06
9.612903         	5.719539394e-06
9.629032         	5.620689911e-06
9.645161         	5.542767778e-06
9.66129          	5.530041673e-06
9.677419         	5.468433102e-06
9.693548         	5.378920985e-06
9.709677         	5.304608201e-06
9.725806         	5.264381267e-06
9.741935         	5.247002988e-06
9.758065         	5.194657005e-06
9.774194         	5.112820018e-06
9.790323         	5.039372212e-06
9.806452         	5.011672266e-06
9.822581         	5.005438557e-06
9.83871          	4.975645517e-06
9.854839         	4.910784698e-06
9.870968         	4.862364122e-06
9.887097         	4.832632157e-06
9.903226         	4.833390582e-06
9.919355         	4.829161053e-06
9.935484         	4.828195142e-06
9.951613         	4.832979901e-06
9.967742         	4.847983890e-06
9.983871         	4.864340528e-06
10               	4.855356499e-06
10.01613         	4.818304247e-06
10.032258        	4.786005959e-06
10.048387        	4.784641096e-06
10.064516        	4.772160758e-06
10.080645        	4.734173522e-06
10.096774        	4.680273367e-06
10.112903        	4.649108380e-06
10.129032        	4.646910887e-06
10.145161        	4.634392999e-06
10.16129         	4.598706404e-06
10.177419        	4.557746819e-06
10.193548        	4.504365681e-06
10.209677        	4.472404257e-06
10.225806        	4.420061201e-06
10.241935        	4.360959721e-06
10.258065        	4.310552838e-06
10.274194        	4.256168114e-06
10.290323        	4.230360588e-06
10.306452        	4.188293548e-06
10.322581        	4.140547091e-06
10.33871         	4.084233252e-06
10.354839        	4.017093442e-06
10.370968        	3.978186047e-06
10.387097        	3.931711668e-06
10.403226        	3.894255648e-06
10.419355        	3.852836440e-06
10.435484        	3.811610188e-06
10.451613        	3.816244959e-06
10.467742        	3.809827535e-06
10.483871        	3.793924246e-06
10.5             	3.777606846e-06
10.516129        	3.754373042e-06
10.532258        	3.766232235e-06
10.548387        	3.754587175e-06
10.564516        	3.726539586e-06
10.580645        	3.710930130e-06
10.596774        	3.718625520e-06
10.612903        	3.742600601e-06
10.629032        	3.733220780e-06
10.645161        	3.702519136e-06
10.66129         	3.685706166e-06
10.677419        	3.671734989e-06
10.693548        	3.676003963e-06
10.709677        	3.660877419e-06
10.725806        	3.627261817e-06
10.741935        	3.617511936e-06
10.758065        	3.606749475e-06
10.774194        	3.618882079e-06
10.790323        	3.596776491e-06
10.806452        	3.553576246e-06
10.822581        	3.529247938e-06
10.83871         	3.492601541e-06
10.854839        	3.472557182e-06
10.870968        	3.441880990e-06
10.887097        	3.395867203e-06
10.903226        	3.371825502e-06
10.919355        	3.346632525e-06
10.935484        	3.332374910e-06
10.951613        	3.295350222e-06
10.967742        	3.246189263e-06
10.983871        	3.215557332e-06
11               	3.183703655e-06
11.016129        	3.167413006e-06
11.032258        	3.137708803e-06
11.048387        	3.113488620e-06
11.064516        	3.108027352e-06
11.080645        	3.103912732e-06
11.096774        	3.101863715e-06
11.112903        	3.077777711e-06
11.129032        	3.051051015e-06
11.145161        	3.043770861e-06
11.16129         	3.038969497e-06
11.177419        	3.033594911e-06
11.193548        	3.013130059e-06
11.209677        	2.996128396e-06
11.225806        	2.991562175e-06
11.241935        	2.985838679e-06
11.258065        	2.980516943e-06
11.274194        	2.955246383e-06
11.290323        	2.930393905e-06
11.306452        	2.911150802e-06
11.322581        	2.888971730e-06
11.33871         	2.881765074e-06
11.354839        	2.863408010e-06
11.370968        	2.848569561e-06
11.387097        	2.834005962e-06
11.403226        	2.815611605e-06
11.419355        	2.789725673e-06
11.435484        	2.759638872e-06
11.451613        	2.734927632e-06
11.467742        	2.710524554e-06
11.483871        	2.683896460e-06
11.5             	2.659671670e-06
11.516129        	2.635830783e-06
11.532258        	2.606561540e-06
11.548387        	2.579485274e-06
11.564516        	2.547696950e-06
11.580645        	2.523094356e-06
11.596774        	2.507192221e-06
11.612903        	2.485803757e-06
11.629032        	2.467113371e-06
11.645161        	2.442405934e-06
11.66129         	2.428771700e-06
11.677419        	2.415919257e-06
11.693548        	2.399024980e-06
11.709677        	2.384327194e-06
11.725806        	2.366736134e-06
11.741935        	2.357275092e-06
11.758065        	2.345346174e-06
11.774194        	2.335223310e-06
11.790323        	2.324817104e-06
11.806452        	2.309002200e-06
11.822581        	2.295577863e-06
11.83871         	2.276120226e-06
11.854839        	2.258523014e-06
11.870968        	2.241792936e-06
11.887097        	2.223841825e-06
11.903226        	2.213421785e-06
11.919355        	2.197206788e-06
11.935484        	2.188062289e-06
11.951613        	2.176125307e-06
11.967742        	2.162828827e-06
11.983871        	2.143158028e-06
12               	2.116807054e-06
12.016129        	2.098444073e-06
12.032258        	2.080010817e-06
12.048387        	2.066690947e-06
12.064516        	2.046900095e-06
12.080645        	2.024193666e-06
12.096774        	2.008892638e-06
12.112903        	1.993520740e-06
12.129032        	1.976484573e-06
12.145161        	1.950276015e-06
12.16129         	1.923663219e-06
12.177419        	1.907875996e-06
12.193548        	1.894074401e-06
12.209677        	1.885061493e-06
12.225806        	1.864117016e-06
12.241935        	1.846303424e-06
12.258065        	1.837864361e-06
12.274194        	1.828844798e-06
12.290323        	1.819518590e-06
12.306452        	1.796182640e-06
12.322581        	1.779391413e-06
12.33871         	1.770616783e-06
12.354839        	1.767587466e-06
12.370968        	1.764307528e-06
12.387097        	1.741861784e-06
12.403226        	1.731260834e-06
12.419355        	1.721417886e-06
12.435484        	1.713734385e-06
12.451613        	1.701297118e-06
12.467742        	1.673278812e-06
12.483871        	1.664151832e-06
12.5             	1.653670213e-06
12.516129        	1.646512212e-06
12.532258        	1.633571068e-06
12.548387        	1.608138566e-06
12.564516        	1.597289045e-06
12.580645        	1.583509737e-06
12.596774        	1.573737309e-06
12.612903        	1.552464195e-06
12.629032        	1.524038315e-06
12.645161        	1.509710187e-06
12.66129         	1.500716275e-06
12.677419        	1.495196635e-06
12.693548        	1.479090512e-06
12.709677        	1.456289994e-06
12.725806        	1.442085868e-06
12.741935        	1.433505053e-06
12.758065        	1.425159917e-06
12.774194        	1.408740266e-06
12.790323        	1.391682185e-06
12.806452        	1.380701548e-06
12.822581        	1.379243795e-06
12.83871         	1.375841124e-06
12.854839        	1.361911586e-06
12.870968        	1.346792097e-06
12.887097        	1.333863317e-06
12.903226        	1.333370398e-06
12.919355        	1.327752216e-06
12.935484        	1.315705768e-06
12.951613        	1.303629230e-06
12.967742        	1.295643305e-06
12.983871        	1.297470187e-06
13               	1.290441940e-06
13.016129        	1.275006679e-06
13.032258        	1.260111653e-06
13.048387        	1.249761585e-06
13.064516        	1.248905010e-06