/*--------------------------------*- C++ -*----------------------------------*\
  =========                 |
  \\      /  F ield         | OpenFOAM: The Open Source CFD Toolbox
   \\    /   O peration     | Website:  https://openfoam.org
    \\  /    A nd           | Version:  12
     \\/     M anipulation  |
\*---------------------------------------------------------------------------*/
FoamFile
{
    format      ascii;
    class       volScalarField;
    location    "0.0059";
    object      nut;
}
// * * * * * * * * * * * * * * * * * * * * * * * * * * * * * * * * * * * * * //

dimensions      [0 2 -1 0 0 0 0];

internalField   nonuniform List<scalar> 
75962
(
4.7737123150873699882e-07
5.4252398976612180033e-07
6.7318184724121589863e-07
8.0380497070130438353e-07
8.7522459944577965438e-07
9.3886208820115945391e-07
1.0783594905519030893e-06
1.2499535811120492895e-06
1.3311248936789716964e-06
1.349471376450110226e-06
1.3626416523710520883e-06
1.4041248883051657471e-06
1.5024531109833061117e-06
1.5935635597762037643e-06
1.6554677081385653099e-06
1.708424370081892963e-06
1.7732107846450742127e-06
1.8570346572390621374e-06
1.9713216430346829589e-06
2.1195383835918941264e-06
2.2654487268086838327e-06
2.3751404147945467538e-06
2.4565159577534526163e-06
2.534292557042437226e-06
2.611531492679150804e-06
2.6743110956003770306e-06
2.7093610862602109878e-06
2.7299525728063885177e-06
2.7666180287264765219e-06
2.8451398845897173885e-06
2.9420533519786826625e-06
3.0210990426299014371e-06
3.0677903016017723903e-06
3.0977956422994679486e-06
3.1462198415521684142e-06
3.2599463516081336735e-06
3.4496729530262722264e-06
3.6279606290921445269e-06
3.7495031930802228014e-06
3.8062696295659380031e-06
3.8234309302581416195e-06
3.8337725133889416089e-06
3.8572942785194091789e-06
3.9039142572435511479e-06
3.9727599583821686792e-06
4.0579575519952694424e-06
4.1490454502026991311e-06
4.233810065772320832e-06
4.3000827420570273362e-06
4.3405597216238553282e-06
4.3601102534722392998e-06
4.3788544556500073391e-06
4.4222499154220474004e-06
4.5519219777355168088e-06
4.7641845212781191627e-06
4.9336016278472097113e-06
5.0379390412604551486e-06
5.0884698112800514714e-06
5.1105085573191790017e-06
5.1221500469692590724e-06
5.1293333409273752783e-06
5.1347062718246464267e-06
5.1441711376734306136e-06
5.1671262542283115808e-06
5.2310507358300095958e-06
5.3866745742158857375e-06
5.5357713762601118933e-06
5.6270331438201219977e-06
5.6625653512561605432e-06
5.6822400906577947167e-06
5.7292078825515477616e-06
5.8924934403652683902e-06
6.1847002339112911405e-06
6.3902746980690924264e-06
6.4985328261847361705e-06
6.5382771267419542452e-06
6.5439713802455543116e-06
6.5395296452080767043e-06
6.5316960161897934253e-06
6.525031271808103136e-06
6.521929015472101525e-06
6.5334198427590928985e-06
6.6080197081671026668e-06
6.748122782989077492e-06
6.8200199452082351743e-06
6.8336289096540473299e-06
6.8249436166009490261e-06
6.7929648015529038463e-06
6.7656281782789520987e-06
6.758966642676214262e-06
6.7689273903160510136e-06
6.8359885003623154464e-06
7.0230796580739352262e-06
7.2084608972002974848e-06
7.3425755677849011764e-06
7.4171421954417534743e-06
7.4452279095063874341e-06
7.46191301764981972e-06
7.5016706523301196052e-06
7.6306112370805996797e-06
7.9266363838948369463e-06
8.1599913803044002192e-06
8.2797940875228134616e-06
8.3106536247487756611e-06
8.3029337157759458776e-06
8.2664909570146042099e-06
8.2322346058619676136e-06
8.2286688604687249494e-06
8.2705735303012019207e-06
8.4708718900673450115e-06
8.7179202724349605787e-06
8.8388595658326392645e-06
8.8702767853242098819e-06
8.8659380269952448451e-06
8.8582936685759466877e-06
8.8579721769233502054e-06
8.8756642938427702123e-06
8.8783475987892130531e-06
8.8640613432564854205e-06
8.803398148366467873e-06
8.6892001101226956221e-06
8.6301256231745083266e-06
8.6146586909634090745e-06
8.6170797942277750143e-06
8.6602756924824863042e-06
8.7296186527470853164e-06
8.766716740484438062e-06
8.7805209646737972018e-06
8.7821696278636115005e-06
8.7779557903070320752e-06
8.7716307280694411216e-06
8.7613428688963653602e-06
8.7380214331305338711e-06
8.7023396146286750657e-06
8.6736668142749627389e-06
8.6540361278463882893e-06
8.6420777358591057484e-06
8.6353705362580564209e-06
8.630751676994084703e-06
8.6312382123654411031e-06
8.6457209061937811278e-06
8.681762141124389572e-06
8.7246734020525901096e-06
8.7721161816882815891e-06
8.8189233259764597702e-06
8.8588121874869991046e-06
8.8871211684383028391e-06
8.9024218281396982579e-06
8.9070367830767248135e-06
8.9060830697761376085e-06
8.9050828348149404248e-06
8.9094848730473411664e-06
8.9304774343469306886e-06
8.9772453724363677054e-06
9.0247605474900565299e-06
9.066854942567696506e-06
9.1020476476857849738e-06
9.1324092051404654293e-06
9.1613034854618257628e-06
9.1923255314836012126e-06
9.2269641907087919134e-06
9.2641982140474768778e-06
9.3000157145548700442e-06
9.3308676093093953236e-06
9.3527780114196485116e-06
9.365434885896082467e-06
9.3702823427977758567e-06
9.3727087189893934884e-06
9.3777180723424523838e-06
9.3906226988946822523e-06
9.4146410674551273543e-06
9.4499584434525420363e-06
9.494191367684310512e-06
9.5424687099067017644e-06
9.5901418345156353443e-06
9.6323820914675560789e-06
9.6664236156706960485e-06
9.6910150229788097944e-06
9.7074913603775774473e-06
9.7180423229529857161e-06
9.7260233327901539092e-06
9.7347763502475829957e-06
9.7463322430923532067e-06
9.7624017824137838728e-06
9.7831532892950733016e-06
9.8081184203180393403e-06
9.8357348778287962277e-06
9.8639867516442784911e-06
1.0133164475530213628e-05
1.0118248560675709448e-05
1.010376235847865215e-05
1.0089819100093373294e-05
1.0076236616368689755e-05
1.0063134826873037882e-05
1.0050367070300245787e-05
1.0038079605729991736e-05
1.0026099965661437234e-05
1.0014574448364658976e-05
1.0003269428397339836e-05
9.9922256061503624799e-06
9.9810562417173174853e-06
9.9698909823858189975e-06
9.9585793790463942031e-06
9.9474822021801660997e-06
9.9363522588488715299e-06
9.9253345359553482293e-06
9.9140926163197871029e-06
9.9029193592161036301e-06
9.8916184543420027932e-06
9.8804299781383742593e-06
9.8690015848095031452e-06
9.8575361414424254072e-06
9.8457390827578172133e-06
9.8339102156261414548e-06
9.8218045221988619704e-06
9.8097893952053176556e-06
9.7976672644730603435e-06
9.7857906371313606173e-06
9.7738448047357470309e-06
9.7620994400183964685e-06
9.750197160549849021e-06
9.7384615586028770896e-06
9.7265002198244442897e-06
9.7146085598364318483e-06
9.7023655763119013716e-06
9.6901259941389945494e-06
9.6775517141058929512e-06
9.6650984370608349164e-06
9.6525023353493867069e-06
9.6403038985283268526e-06
9.6281724192392101471e-06
9.6164800953572637424e-06
9.6046302053040540179e-06
9.5928477906897565163e-06
9.5806247641947259462e-06
9.5684474413448942229e-06
9.5560851177656932039e-06
9.5441187560079778672e-06
9.5321981050219866316e-06
9.5206721566708055903e-06
9.5089991903971489282e-06
9.497449893880375072e-06
9.4855899820776557157e-06
9.4738226035935326879e-06
9.4618591341642483501e-06
9.4500631245069771852e-06
9.4380988430359205897e-06
9.4262748382706442401e-06
9.4143106702205383359e-06
9.4025457977636986477e-06
9.390674257916602983e-06
9.379000977262182061e-06
9.3672185825416002082e-06
9.3557076912098525236e-06
9.3441446778250306294e-06
9.3328830916671051557e-06
9.3215206425431799405e-06
9.3104041843663288061e-06
9.2990899200190678804e-06
9.2878964724558574163e-06
9.276282503569007273e-06
9.2645878472912978637e-06
9.2523515549018909784e-06
9.2400755235252367579e-06
9.2274421650828511633e-06
9.2149905511805797992e-06
9.202414251623288667e-06
9.1901915031308207448e-06
9.1779739843843561426e-06
9.1661299307289329896e-06
9.15422341547857391e-06
9.1425452244940386023e-06
9.1307089827199283081e-06
9.1190796682635111108e-06
9.1073600734786012956e-06
9.0958640614954409958e-06
9.0842180462470767757e-06
9.072639614310758693e-06
9.0608369479582322929e-06
9.0491275348592882782e-06
9.0373588170938894446e-06
9.0258100047804031338e-06
9.0142937508049818029e-06
9.0030129364744082755e-06
8.9918092313192367224e-06
8.9808344761736271113e-06
8.9698899175341762825e-06
8.9590082961806100071e-06
8.9480082375854571518e-06
8.9369846309917363357e-06
8.9258217529923603744e-06
8.9146939011782142149e-06
8.9033709098072499199e-06
8.8920813602858813458e-06
8.8805674200540730181e-06
8.8692019089546513113e-06
8.857763595415514023e-06
8.8466040057524703499e-06
8.8353944850020146054e-06
8.8243808041778455664e-06
8.8132272582650460837e-06
8.8021660413041781436e-06
8.7909576952069654548e-06
8.779824354146705502e-06
8.7686402354674907649e-06
8.7575407289735237074e-06
8.7464442295821785055e-06
8.7353677602574685641e-06
8.7242407257586150659e-06
8.7131232090433243306e-06
8.7018976080308432943e-06
8.6907958158536114681e-06
8.6795976303875107557e-06
8.6687170918163609972e-06
8.6578199004359307077e-06
8.6472043355010328353e-06
8.6365266706566781697e-06
8.6258896474195228193e-06
8.6152290925886474337e-06
8.604549209905886962e-06
8.5939333607165067512e-06
8.5833212754745864587e-06
8.5727298591633648033e-06
8.5621639404871642299e-06
8.5515530548561247425e-06
8.5408901378996260144e-06
8.5302236921811837886e-06
8.5194264091213227444e-06
8.5088323654119309115e-06
8.4981461490097074334e-06
8.4877684859032922387e-06
8.4773402358046826487e-06
8.4672013277838208432e-06
8.4569861421793850686e-06
8.4470039297042595481e-06
8.436721881065337698e-06
8.4265950314517355926e-06
8.4160586867127113505e-06
8.4057047734491088309e-06
8.3950522235180939553e-06
8.3846562407808898707e-06
8.3740040663557571482e-06
8.3637898290309553757e-06
8.3531842379504652152e-06
8.3431314788203283801e-06
8.3324995576801321286e-06
8.3223545191499570333e-06
8.3117025712320409531e-06
8.3015491525820442483e-06
8.2910027965893378754e-06
8.2810589035678253741e-06
8.2706250328862846875e-06
8.2607277973822993116e-06
8.2502351573575492957e-06
8.2401320363587318496e-06
8.2294589401501775316e-06
8.2193247820220962562e-06
8.2087543726326389019e-06
8.1989047919565133171e-06
8.1886177110655190782e-06
8.1790131087749644919e-06
8.168821601872495967e-06
8.1592601400567797931e-06
8.148978060587634044e-06
8.1393571168200509519e-06
8.128910842219641943e-06
8.1192127931871996239e-06
8.1086769253886077202e-06
8.0989727400940398087e-06
8.0885010846932268536e-06
8.0788924245248304028e-06
8.0685894343891571389e-06
8.0591202195047649575e-06
8.0489034197999590294e-06
8.0394636194482728295e-06
8.0293063986095605447e-06
8.0198811580285387805e-06
8.0097801628427763812e-06
8.0004973413912499009e-06
7.9904174730802647792e-06
7.9811820131153190882e-06
7.9710906279694781188e-06
7.9617799585175295945e-06
7.9515991300447845834e-06
7.9422434030978847775e-06
7.9319810889663769663e-06
7.9226416084530172738e-06
7.9123546321458688231e-06
7.9030546690588751162e-06
7.8927911210499481897e-06
7.8835135275161094949e-06
7.873322349361769611e-06
7.8641246254318899046e-06
7.8540545043970365645e-06
7.8449862189536718983e-06
7.8350362083277522006e-06
7.8260949136589933166e-06
7.8163043740964762151e-06
7.8074757900907653546e-06
7.7977634195056918847e-06
7.7889476420810821271e-06
7.7791747925155830536e-06
7.7702912197563347502e-06
7.7605447561588582775e-06
7.7517438493353521697e-06
7.7421748170152048624e-06
7.7336234581065509467e-06
7.724285378427226477e-06
7.715926293277806987e-06
7.7066976446737475552e-06
7.6983013288714565071e-06
7.6889084115546239389e-06
7.6804087801887734272e-06
7.6708120034175075394e-06
7.6623039223342789405e-06
7.6526699824260569063e-06
7.644221896709814699e-06
7.6346024294962875646e-06
7.6261649962107379942e-06
7.616695420279000126e-06
7.6083472211917510503e-06
7.5990191451352075245e-06
7.5907358241381971849e-06
7.581422616460034435e-06
7.5730725733762324471e-06
7.5637419803496919681e-06
7.5555350356361353488e-06
7.5464142112823714135e-06
7.5385154617499019658e-06
7.529683356641333816e-06
7.5221021917428101532e-06
7.5134739710385466273e-06
7.5059591232258340797e-06
7.4974551124426937364e-06
7.4898573146418934444e-06
7.4813036394150156722e-06
7.47361839392268233e-06
7.4650461250652859363e-06
7.4573911377065265835e-06
7.4487525725380938313e-06
7.4412116149127305141e-06
7.4325759168828659174e-06
5.1726060852561279202e-07
6.0574329311934112284e-07
7.1526717840766997503e-07
8.507238572908921831e-07
9.3069588837547557269e-07
9.8403131730767478261e-07
1.0921713446189762317e-06
1.2837354548188457615e-06
1.3979918031611732331e-06
1.4346352379172210828e-06
1.4471563940389962239e-06
1.4728252971890485161e-06
1.5441222843691497821e-06
1.6836457980690644945e-06
1.7819087210352033431e-06
1.830059723825448607e-06
1.8767651469088434405e-06
1.9744616066681435747e-06
2.1259234466457410473e-06
2.2667611951513148098e-06
2.3628125324065222328e-06
2.4299939231352314633e-06
2.511397921885735343e-06
2.6196707985830401353e-06
2.7219072728677668876e-06
2.7862082784349406845e-06
2.8161995572306413669e-06
2.8464865317225933614e-06
2.9110240268986831861e-06
3.0055284396183876222e-06
3.0970020358360168885e-06
3.1629094726507032911e-06
3.1997494405259589961e-06
3.2250620776471643186e-06
3.269085682977589642e-06
3.3759029433166271917e-06
3.6183767183632009367e-06
3.8509614923979527284e-06
3.9995522471944820422e-06
4.0642145133538382803e-06
4.0789090038961961927e-06
4.0790535765283874003e-06
4.081644762960683145e-06
4.0944076166418026032e-06
4.1367352945207864007e-06
4.2361881302782445228e-06
4.3458627539653846918e-06
4.4454040293455986932e-06
4.5216463602448167395e-06
4.5672151529668974138e-06
4.5867249770083982604e-06
4.5974613234162099842e-06
4.6207501803482923166e-06
4.6939442171101785061e-06
4.9031902204096077804e-06
5.1220748854642196937e-06
5.2637464979055803937e-06
5.3347164108343697597e-06
5.3605627037352160128e-06
5.3662871109322281732e-06
5.3664684696242760561e-06
5.3679671623327884382e-06
5.3756673090279859085e-06
5.4007893973653070982e-06
5.4815389880549261986e-06
5.6686359439406858561e-06
5.840578167784430152e-06
5.95126275728352267e-06
5.9974693062235768942e-06
6.0136843910125652448e-06
6.0433245374068991499e-06
6.142396199856314867e-06
6.3972585607631285724e-06
6.6168832129000087173e-06
6.7452185842788194139e-06
6.802010091632370789e-06
6.8187278801343038025e-06
6.8192199860254213066e-06
6.8153289770561787956e-06
6.8114541384987281278e-06
6.8106822306164256729e-06
6.8262415151562850981e-06
6.9061882792321983997e-06
7.0497913674650528065e-06
7.1320996137545895167e-06
7.1556692893226422938e-06
7.1513143178789658646e-06
7.1327453080703468754e-06
7.106014704694985662e-06
7.0964187359288176084e-06
7.0976202088256606758e-06
7.1353000798199550742e-06
7.2951471776219434411e-06
7.5439329045426912839e-06
7.7232633886999211003e-06
7.8226437924386748744e-06
7.8614849673119548509e-06
7.8831475151258966806e-06
7.9309433152004904277e-06
8.0772295340264317918e-06
8.3384567391650119304e-06
8.5359982388494866476e-06
8.6360843100472672326e-06
8.6586613799886318467e-06
8.6489285239958970015e-06
8.6115546253580957755e-06
8.5833886243587447954e-06
8.5834624787488860841e-06
8.6428182182560033052e-06
8.8934920677883062254e-06
9.1674611265428580326e-06
9.2995570711121654754e-06
9.3359342727134072193e-06
9.3356439599698492679e-06
9.335971506002550241e-06
9.3607324912952615252e-06
9.4150341878528597819e-06
9.4290453880186785149e-06
9.4169691512472127211e-06
9.3603281775664719369e-06
9.2314354128871183144e-06
9.1596712052297985494e-06
9.1404228527633487076e-06
9.1425803976146920984e-06
9.1886438432862288517e-06
9.2591020678088766351e-06
9.293151775559494376e-06
9.3030541178448647802e-06
9.3011159378962865175e-06
9.2953891393235120216e-06
9.2867210036177043e-06
9.2670514434615168157e-06
9.2251688464359247219e-06
9.1877968429866889037e-06
9.1611215287447812506e-06
9.1441419508246053825e-06
9.1338620563830836923e-06
9.1272067653398494374e-06
9.1221454395009577912e-06
9.1207876014559868539e-06
9.1295569701505713164e-06
9.1653929384114902541e-06
9.2168284187900580818e-06
9.2656891845405626757e-06
9.3056784851065579042e-06
9.3318297637643945379e-06
9.3438397694229540034e-06
9.3459926832187028461e-06
9.345078270188197014e-06
9.3486362519344298592e-06
9.3653883995867398256e-06
9.3973834680234058221e-06
9.4361152254556205277e-06
9.4762961436276500353e-06
9.5133784514550922911e-06
9.5458609539093810023e-06
9.5751552955026847971e-06
9.6041894166374262019e-06
9.6359436756715155135e-06
9.6725189813416493251e-06
9.7139398950465121195e-06
9.7575369114541425647e-06
9.7990404613232267482e-06
9.8337092232822725344e-06
9.8576830741782469513e-06
9.8701124528014316757e-06
9.8732742484642754387e-06
9.8715913428618685163e-06
9.8704993362538065497e-06
9.8755679273418508097e-06
9.894509742826964051e-06
9.9286113533370853402e-06
9.9752816146690167213e-06
1.0030657318186137099e-05
1.0089114033060859395e-05
1.0143940828368605724e-05
1.0188066176157337255e-05
1.0217875031336801252e-05
1.0232971441166963916e-05
1.0237774478259343284e-05
1.0237662052111009837e-05
1.0238468571470259053e-05
1.0244191817139541441e-05
1.0256892366028099944e-05
1.0277136787261237634e-05
1.0303475471661349106e-05
1.0334029913761021046e-05
1.0365708803726249841e-05
1.039592432493089895e-05
1.0686050655822324464e-05
1.0669723234293702633e-05
1.0653893511903225579e-05
1.0638434282411751318e-05
1.062346417378421568e-05
1.0608909779934987347e-05
1.0594858599872401841e-05
1.0581199467504477033e-05
1.0568056236896127554e-05
1.0555313280096930505e-05
1.0542993468816862611e-05
1.0530851560936642982e-05
1.0518860871716209803e-05
1.0506812856010734427e-05
1.0494799338049784165e-05
1.0482734855397822936e-05
1.0470834529282504099e-05
1.0458971726863156509e-05
1.0447241191889590983e-05
1.0435402007080808048e-05
1.0423575865311174115e-05
1.0411619592957548197e-05
1.0399689115903973193e-05
1.0387602946064397976e-05
1.0375490173299624193e-05
1.0363174482303121453e-05
1.0350823708728249377e-05
1.0338329445417884295e-05
1.0325929890799769676e-05
1.0313515773387255795e-05
1.0301190992858237587e-05
1.0288737016710509741e-05
1.0276271376603737673e-05
1.0263698615174799054e-05
1.0251219890905433478e-05
1.0238681912233727243e-05
1.0226175374102296437e-05
1.0213514848045263103e-05
1.0200794305864389298e-05
1.0187873567149767119e-05
1.0174860353991289699e-05
1.0161719084990411728e-05
1.0148708300657019698e-05
1.0135858709094550741e-05
1.0123294486956346605e-05
1.0110794736942735176e-05
1.0098284414380673493e-05
1.0085569911863836662e-05
1.007273881075917964e-05
1.005982026558692093e-05
1.0047010956492395545e-05
1.0034329922272304704e-05
1.0021836257950930896e-05
1.000938790300491882e-05
9.996958714164729391e-06
9.9844362770729107467e-06
9.9719255032026196553e-06
9.9594113017000135548e-06
9.9469647917565288356e-06
9.9345010972782837633e-06
9.9220263551396325682e-06
9.9095205863935354037e-06
9.8970523816872347025e-06
9.8846318904591151948e-06
9.8723085378971131982e-06
9.8600523101543944724e-06
9.8479011193988675118e-06
9.8358186174559925687e-06
9.8238688037902365229e-06
9.8120103271544116855e-06
9.8002479270633018391e-06
9.7884235680694737521e-06
9.7764365301438459525e-06
9.764124309899960879e-06
9.751522200611491506e-06
9.7386331822142939446e-06
9.725627794157175779e-06
9.7125232856585192516e-06
9.6994494891750521654e-06
9.6864197198058266781e-06
9.673530169484769096e-06
9.6607965011152725191e-06
9.6482019445400017893e-06
9.6357118827531584366e-06
9.6232840189989755041e-06
9.6109280706356051941e-06
9.5986342610453471487e-06
9.5864048660317094152e-06
9.5741680199702532545e-06
9.5618975543825803306e-06
9.5495073249877713878e-06
9.5370387712769810989e-06
9.5245118437075231347e-06
9.5120788445391600508e-06
9.4997573267351946086e-06
9.4876667819210021222e-06
9.4757138337534377786e-06
9.4640035746750928656e-06
9.4524049612808532693e-06
9.4409953348429012491e-06
9.4295512400534533306e-06
9.4181309359929476794e-06
9.4065494564536321999e-06
9.3949407102298230268e-06
9.3832107917753494774e-06
9.3714165068733757985e-06
9.3594830150835689404e-06
9.3474599317922132859e-06
9.3354048649948633617e-06
9.3234421420652530301e-06
9.3115861065341314843e-06
9.2998324346906757575e-06
9.2880632829435909548e-06
9.2763104835011449641e-06
9.2644673438130895824e-06
9.2526957160017818068e-06
9.2408348973721959771e-06
9.2291162342308949245e-06
9.2173406670892307519e-06
9.2057668326928280395e-06
9.1941412442099624137e-06
9.1826672775586148066e-06
9.1710876995187023432e-06
9.1595144077703743399e-06
9.1478387528833849225e-06
9.1361594871243825312e-06
9.124548847608226728e-06
9.1130915123229395275e-06
9.1017136594651059273e-06
9.0904777204288528914e-06
9.0791084979677773238e-06
9.0679017598287634628e-06
9.0565143918992108428e-06
9.0453991268718919269e-06
9.0341317236471878268e-06
9.0230924252089181374e-06
9.0118829234390985475e-06
9.000808776306711413e-06
8.9894881438344595345e-06
8.9783561863311818068e-06
8.9669316387753623775e-06
8.9558919239463023645e-06
8.944565163749813714e-06
8.9337331555844576064e-06
8.92263742417947796e-06
8.9120513837796931005e-06
8.9012066384200963103e-06
8.8907967909455310937e-06
8.8799336406706319265e-06
8.869371146677228562e-06
8.8582174966968075207e-06
8.8473763412472385728e-06
8.8360227273933753808e-06
8.8251258986006837201e-06
8.8137772448861618878e-06
8.8030862987908523222e-06
8.7918410654981778049e-06
8.7813165744104910982e-06
8.7700536475874937869e-06
8.7594541600103688469e-06
8.7481828744352587574e-06
8.7376221876817616895e-06
8.7264802555335217656e-06
8.7161237391040132129e-06
8.7050725527126124727e-06
8.6947333728536358729e-06
8.6836096779840604514e-06
8.6730245408146401713e-06
8.6616524074123520008e-06
8.6509425314668674699e-06
8.6396071717401620705e-06
8.6292215396907958128e-06
8.6183104552188644732e-06
8.6083240522609935359e-06
8.5976307672123138609e-06
8.5877252010112784555e-06
8.5768799632047459106e-06
8.5668403205519584489e-06
8.5557557777256830738e-06
8.5455577545747311613e-06
8.5343515025341089281e-06
8.5241525573125790977e-06
8.5130639852121800341e-06
8.5030422968438581181e-06
8.4921597298378524992e-06
8.482318123263261092e-06
8.4715028607246476057e-06
8.4616538384426224291e-06
8.4508359371397543677e-06
8.440934890203630192e-06
8.4301302711632793515e-06
8.4203333529096129566e-06
8.4096024393070468794e-06
8.3999480693412344456e-06
8.389274436187078553e-06
8.3796146485496396568e-06
8.3688566755578644749e-06
8.359105108584437952e-06
8.3482157592011771614e-06
8.3384327697141879409e-06
8.3275101210040743046e-06
8.3177399426365090972e-06
8.3068120335394716352e-06
8.2970443042677675716e-06
8.2861335022464263839e-06
8.2764051416428818965e-06
8.2656215580472370831e-06
8.2560474037634878951e-06
8.2454746018041067567e-06
8.2361380008861569775e-06
8.2257499931582827733e-06
8.2165499142633828083e-06
8.2062157850601904471e-06
8.1969837742107547624e-06
8.1865539069149836004e-06
8.1772443195467561377e-06
8.1668546548500167714e-06
8.1576463931620997515e-06
8.1474454632499123877e-06
8.1385356631038652654e-06
8.128636541838520134e-06
8.1199619258427105649e-06
8.1102037532333866256e-06
8.1015113559826116489e-06
8.0915406955052478205e-06
8.0826296575177283761e-06
8.0723632184011719326e-06
8.0633569452311058958e-06
8.0529936075602970649e-06
8.0439893340298901386e-06
8.0336424891469956992e-06
8.0246725938392559274e-06
8.0144634847015493005e-06
8.0056221187229824663e-06
7.995611965302775568e-06
7.9868802699944675325e-06
7.9769223140333824878e-06
7.9681982709072799386e-06
7.9582688193848318128e-06
7.9496707481815721738e-06
7.9399343949977870558e-06
7.9316156190519777707e-06
7.9221128287837641179e-06
7.914021124330077652e-06
7.9046754824611684597e-06
7.8966500110599209766e-06
7.8873933452807117668e-06
7.8792932592626059406e-06
7.8700369249148698444e-06
7.8619006195982770309e-06
7.8526822781024305183e-06
7.8446290690427350608e-06
7.8354103730159663775e-06
7.8275105208742727436e-06
7.8183246932758742529e-06
5.4035777738242360861e-07
6.1390333341255701053e-07
7.0710626035846309505e-07
8.7657885398494817523e-07
9.8449419645797543888e-07
1.0384690015046865656e-06
1.1346195000401626141e-06
1.3358788763188177163e-06
1.4620088326425255227e-06
1.4971651873533620978e-06
1.5086247807141948286e-06
1.5359981165554640216e-06
1.6199949004709366368e-06
1.7873523289975688087e-06
1.9080983885060738853e-06
1.9698665875038550112e-06
2.001285176304633937e-06
2.0419136229758395086e-06
2.1346530619473690356e-06
2.3328542773750998437e-06
2.5133349633801937269e-06
2.6396443207452817828e-06
2.7346213794968866641e-06
2.824105156198516841e-06
2.9029801215434823662e-06
2.9532789860578201235e-06
2.9773479884223457379e-06
2.9986969623977971347e-06
3.0455382703599047398e-06
3.154210512641764495e-06
3.2606999803472622286e-06
3.3288915780194111949e-06
3.3629443582146353916e-06
3.3893480594232372164e-06
3.4404670947824168167e-06
3.5667968657439704777e-06
3.7902005075183989648e-06
3.9995511946840150909e-06
4.1470157978884730616e-06
4.2247648946607218085e-06
4.2548620840781224979e-06
4.268021799659101356e-06
4.2889014735179905848e-06
4.3307191705363494915e-06
4.3987876598916999016e-06
4.4900397323714120071e-06
4.5920138302135681538e-06
4.6857825312505882828e-06
4.7531361952316715299e-06
4.7875209800026044006e-06
4.8000853827726411348e-06
4.8133128565375891367e-06
4.8498823393943627937e-06
4.9792038975343979164e-06
5.2815794294250328639e-06
5.5164756182607174837e-06
5.6383362140224761781e-06
5.6767704810351454891e-06
5.6775409598232621199e-06
5.6692923105608200183e-06
5.6605973901545747446e-06
5.6574996361696933033e-06
5.6640616977582723438e-06
5.7046503383010582145e-06
5.8444690730403548218e-06
6.0248523218435074466e-06
6.1538670193558651895e-06
6.2260295852128528577e-06
6.2518376482421279629e-06
6.2616525052200579864e-06
6.286172107081092169e-06
6.3808674784696138579e-06
6.6356869403919766794e-06
6.8501885587625544025e-06
6.9697033247725001244e-06
7.0196793131312627091e-06
7.0328844497716392397e-06
7.033334918270838674e-06
7.0333595657852648035e-06
7.0393983999031807617e-06
7.0678334375620677378e-06
7.1736333850069877025e-06
7.3231158940529349864e-06
7.4201980621815018783e-06
7.460892353618022879e-06
7.4638058725378385292e-06
7.4529159529850439323e-06
7.4246597902356304565e-06
7.4084359831432407465e-06
7.4057720683538905753e-06
7.4294032103497009061e-06
7.5490449165869675128e-06
7.8255776964888672551e-06
8.0567754144841382565e-06
8.2068787160748002288e-06
8.2793828818062109701e-06
8.3026078940796303881e-06
8.319485272647389473e-06
8.365983383940611874e-06
8.5313012698433163841e-06
8.8398023769032087952e-06
9.0415538067329387774e-06
9.1224701889418872644e-06
9.1283181366212250325e-06
9.1040970690741544101e-06
9.0311780610981304236e-06
8.992873567768282865e-06
8.9933766293418446848e-06
9.0653426627118551836e-06
9.3619611475587818e-06
9.6720530395790932533e-06
9.8176297243666641162e-06
9.8557697806435449334e-06
9.8546609172104600121e-06
9.8550484199803373733e-06
9.8865253430840623511e-06
9.9670340353702249059e-06
9.9944219296163805876e-06
9.9843930243114512252e-06
9.9302398613819787047e-06
9.7798012139892303012e-06
9.6764515550609416297e-06
9.6405745490077448178e-06
9.6336879586844952913e-06
9.6436877996414588864e-06
9.6919164531730333514e-06
9.7372287150809117684e-06
9.7694959092121450142e-06
9.7926025070609210927e-06
9.8056037503830757604e-06
9.80793397301602336e-06
9.8023642317677056693e-06
9.7911657416730664438e-06
9.7599264040901073625e-06
9.7080531162592725842e-06
9.6740313002120789198e-06
9.6568838711497548619e-06
9.6492423051783651495e-06
9.6461620405557599311e-06
9.654446917828231453e-06
9.6607583341208256005e-06
9.6619901036878044976e-06
9.66695158487888781e-06
9.6865660687775388503e-06
9.7232645418662704988e-06
9.76254538735406371e-06
9.7978032185494415269e-06
9.8278696495292751823e-06
9.8557520707643088816e-06
9.8853914380958713255e-06
9.9193667041188960867e-06
9.9570211577644117726e-06
9.9947477872383432322e-06
1.0028287198439300636e-05
1.0055899827826677101e-05
1.0078062827846970327e-05
1.0098005707187205482e-05
1.0119764920760957339e-05
1.0146382878258549925e-05
1.0179210831224984546e-05
1.021706042447715948e-05
1.0257299673583967394e-05
1.0296819683273646454e-05
1.0332344659576929023e-05
1.0363072553907291508e-05
1.0388408734781356613e-05
1.041091603535803105e-05
1.043236853820453756e-05
1.0456227333289643645e-05
1.0483845961313484848e-05
1.0515558648014661805e-05
1.0550810121505210717e-05
1.0587465572382433583e-05
1.0623283843522340173e-05
1.0655448090237944512e-05
1.0682930653812396869e-05
1.0705155007203236622e-05
1.0722245046750653884e-05
1.0735158089551081383e-05
1.0747106551591321884e-05
1.0760587359375194444e-05
1.0778655401900705325e-05
1.0802962207956743587e-05
1.083327241370209956e-05
1.086816573242079514e-05
1.0904824790812809118e-05
1.0940990479324069537e-05
1.0973494162496133294e-05
1.1000978070922861525e-05
1.1268219269234779192e-05
1.1249194448253058707e-05
1.1230698082700871831e-05
1.1212888222866426279e-05
1.1195610713995235986e-05
1.1179115639818236282e-05
1.1163166363940166091e-05
1.1147996449947807809e-05
1.1133387358250100118e-05
1.1119485117571743977e-05
1.1105827145175294461e-05
1.1092443143048204854e-05
1.1078998553573791424e-05
1.1065786379949669446e-05
1.1052535934718921509e-05
1.1039532976253792364e-05
1.1026459275114120732e-05
1.101367354044930296e-05
1.1000814499638211333e-05
1.0988173062528966994e-05
1.0975315583041853662e-05
1.096259782265062021e-05
1.0949648380246583898e-05
1.0936872540755977935e-05
1.0923854935426200122e-05
1.0910955367172573433e-05
1.0897746099324740054e-05
1.0884724376556170793e-05
1.0871582831388799448e-05
1.0858763793868748715e-05
1.0845698657246926071e-05
1.0832684084214661791e-05
1.0819265065679149025e-05
1.0806019538280464364e-05
1.0792596722159409465e-05
1.0779490572349266394e-05
1.0766183209384515596e-05
1.0753135415386435748e-05
1.0739793205012191225e-05
1.0726578557010504018e-05
1.0712879594035926739e-05
1.069926743192213291e-05
1.0685352297147631355e-05
1.0671888071609009785e-05
1.0658369309142569877e-05
1.06453113025626197e-05
1.0631995608502774374e-05
1.0618901083381337514e-05
1.0605379373460888161e-05
1.0592027299180383721e-05
1.0578269325491336297e-05
1.0564820442676442508e-05
1.0551115540880698821e-05
1.0537840579704704371e-05
1.0524337605978224071e-05
1.0511223051024500555e-05
1.0497835412076968845e-05