/*--------------------------------*- C++ -*----------------------------------*\
  =========                 |
  \\      /  F ield         | OpenFOAM: The Open Source CFD Toolbox
   \\    /   O peration     | Website:  https://openfoam.org
    \\  /    A nd           | Version:  12
     \\/     M anipulation  |
\*---------------------------------------------------------------------------*/
FoamFile
{
    format      ascii;
    class       volScalarField;
    location    "0.0059";
    object      p;
}
// * * * * * * * * * * * * * * * * * * * * * * * * * * * * * * * * * * * * * //

dimensions      [1 -1 -2 0 0 0 0];

internalField   nonuniform List<scalar> 
75962
(
99321.584373724414036
99016.263183542148909
98917.453580919638625
98998.741924715286586
98953.214783784613246
99008.459015627406188
99095.665583536421764
99170.110560402987176
99210.782088452760945
99089.49048468824185
98874.728323134622769
98792.653932698638528
98898.519420642202022
99024.863257709686877
99070.807883081826731
99047.496271268260898
98973.112833417151705
98894.638274995755637
98871.515865372246481
98897.683275926770875
98919.925162770377938
98895.563489301828668
98865.62389010869083
98861.817004152966547
98868.927995922989794
98893.458101333511877
98925.983524693001527
98921.789065475648385
98879.584992023213999
98855.89151619214681
98878.67482902345364
98904.061373488802928
98898.915165605576476
98883.003273805137724
98878.282368130108807
98885.816640249235206
98907.406913170852931
98935.102200031105895
98953.073615551169496
98949.739493666027556
98925.834622574097011
98896.970830741149257
98886.369152734783711
98906.588006420963211
98938.018281753742485
98949.209957863495219
98932.521354924276238
98909.253079745831201
98898.110932470182888
98901.860577611674671
98909.820410717496998
98913.681715799990343
98902.958286178647541
98883.174465216972749
98877.983028327042121
98906.02958565283916
98958.091224643256282
99006.255149174918188
99027.142361831967719
99023.733818869295646
99019.638795709368424
99035.509624599522795
99067.222416668344522
99090.178348290777649
99090.552971335404436
99078.509214703342877
99075.097547121651587
99089.557332756390679
99105.228529409592738
99100.267949657034478
99067.940944370260695
99029.907597947414615
99016.158326938850223
99033.737160539516481
99064.302127331277006
99087.437492592420313
99097.116585838724859
99093.504659829297452
99078.739172967456398
99058.822433141933288
99047.261986822893959
99050.752358183613978
99060.013311822418473
99060.069160704748356
99048.296454014314804
99035.030457334170933
99026.308420122019015
99018.247707823888049
99003.509911976187141
98985.63042776263319
98979.57376099996327
98998.20965919875016
99040.110938985002576
99086.630442009409308
99117.923707930414821
99128.88635198691918
99132.214262631750898
99140.345367702408112
99150.707962764747208
99147.260746416650363
99118.941361822100589
99076.248407615421456
99043.981464029449853
99043.175622408016352
99070.03845410294889
99106.338455721343053
99131.853986268222798
99143.188731991045643
99145.176157307112589
99139.323769624810666
99122.844278114207555
99095.739508675222169
99068.621425117671606
99052.801564604698797
99050.353846655765665
99049.946313205902698
99038.24128096421191
99014.304985731097986
98993.383879439745215
98992.264658732150565
99011.385402757383417
99033.325806730383192
99040.372636598680401
99029.848612119458267
99014.151787412920385
99008.260530721920077
99017.671898490822059
99037.854824485795689
99061.01715582064935
99079.000642753089778
99084.001246848740266
99073.113244981199387
99049.746892180512077
99022.744549737064517
99002.623861297470285
98996.071019675306161
99005.183382168281241
99027.338069887948222
99057.730116143909981
99090.756220502997166
99122.125994098823867
99150.387857193010859
99173.470462686993415
99186.973365547280991
99184.368948587129125
99163.424738553876523
99130.335033735551406
99097.530452852282906
99076.157428416496259
99070.767553138095536
99078.523083189124009
99091.555968916101847
99104.313645709306002
99117.069820102769881
99134.194640979767428
99160.721496009762632
99194.468622572021559
99226.05718678041012
99242.225556097822846
99234.700244169202051
99205.533531660170411
99165.718538041241118
99130.18548621435184
99109.008542548443074
99102.893287680650246
99104.534523029840784
99105.545110975916032
99102.54902979246981
99098.964927724809968
99101.083526460904977
99112.794284047966357
99131.289379567329888
99149.052624312229455
99159.609111553058028
99160.269414660069742
99153.120056315150578
99142.837284199427813
99133.905505692004226
99128.58428157409071
99127.064987359655788
99127.814038987402455
99128.865302768288529
99128.237748740240932
99124.202358123438898
99116.637854307773523
99108.09255008357286
99103.274330052183359
99105.94031210403773
99260.993831615705858
99249.29506730104913
99232.403928555169841
99210.355382828885922
99184.194815752911381
99156.216779567563208
99129.359193692813278
99106.365723651411827
99088.728909253215534
99076.123586813060683
99066.766111330216518
99058.598960145536694
99050.656887054006802
99043.294819023751188
99037.544316402956611
99033.876788238456356
99031.582795476992032
99029.519542264650227
99027.168384855336626
99025.086883623967879
99024.217822858088766
99024.398621724336408
99023.649948436650448
99018.708998968679225
99007.01435737904103
98988.959480799632729
98968.203408823872451
98949.794930338277481
98937.670047701438307
98933.117805414949544
98934.810146036164952
98940.169424408115447
98946.994911137167946
98954.141566713456996
98960.679228586479439
98964.882973052866873
98964.02204059183714
98955.534379300966975
98938.905245617163018
98916.879032149619889
98894.925565080571687
98878.793614855516353
98871.456817663420225
98871.65472995347227
98874.573283231948153
98874.582707541296259
98868.535557004317525
98857.316122916905442
98845.086367002833867
98836.816818741310271
98835.535668047436047
98841.11603728166665
98850.504191357176751
98859.405503329369822
98864.194219138822518
98862.97348176621017
98855.693262253407738
98843.833338299737079
98829.588310513077886
98815.190349565236829
98802.420840209626476
98792.428195243046503
98785.613453286350705
98781.897521650171257
98781.368876032400294
98784.78957014826301
98793.645801543767448
98809.478532891371287
98832.622180642865715
98861.083053849928547
98890.353366761730285
98914.335129418133874
98927.49130119223264
98926.933139848348219
98913.367973063403042
98890.467317961796653
98863.179705892165657
98835.870568611557246
98811.147980088018812
98789.876924793657963
98771.832316205094685
98756.606061857950408
98744.221536492055748
98735.102615701398463
98729.647648694939562
98727.706549757669563
98728.182138172953273
98729.130516600678675
98728.254851681980654
98723.717874977664906
98715.001603478391189
98703.41001853250782
98691.732438912251382
98683.280066290739342
98680.921210849075578
98686.17622553576075
98698.721656715584686
98716.56678686090163
98736.710871964110993
98756.103485172177898
98772.45591519435402
98784.541310666390928
98792.100774398597423
98795.463399123807903
98795.260826753466972
98792.270717743158457
98787.509981669587432
98782.208525912938057
98777.572482652059989
98774.495187770211487
98773.306436915809172
98773.617791399374255
98774.485418962183758
98774.906653941448894
98774.075185630616033
98771.833818389975931
98768.601903182512615
98765.183315087910159
98762.350166277989047
98760.452335228255833
98758.932682585131261
98756.883090523260762
98753.391554937814362
98747.980178340294515
98741.083860865182942
98734.067471565111191
98728.853370905577322
98727.124655671330402
98729.827570625129738
98736.805701587261865
98746.78973518764542
98757.820062796134152
98767.868821063297219
98775.414045989746228
98779.728535874732188
98780.773879751839559
98779.329440751127549
98776.625386147599784
98774.228300069837132
98773.741862308685086
98776.50955980537401
98783.341884590816335
98794.470533419342246
98809.472309610719094
98827.296881822912837
98846.374226376734441
98864.845995182055049
98880.930310501149506
98893.418790478739538
98901.929830382141517
98906.953615033460665
98909.571834755392047
98911.055132656460046
98912.447884996130597
98914.260045547940535
98916.419913590769283
98918.535424109155429
98920.197365772692137
98921.324447203427553
98922.049001774896169
98922.655067717263591
98923.450943041258142
98924.596460707602091
98926.083612450878718
98927.737411266134586
98929.340452121119597
98930.696355653024511
98931.734340131835779
98932.699713591966429
98934.196992747398326
98936.951066908019129
98941.560124994721264
98948.272563488062588
98956.748865630492219
98966.059845891475561
98974.528117544585257
98980.281075221326319
98981.773120407917304
98978.37507428288518
98970.448434019752312
98959.307194881796022
98946.689538340302533
98934.483777570552775
98924.224278044537641
98916.6622828670952
98912.035819366588839
98909.977334775001509
98909.957325073395623
98911.786545086448314
98915.190728761139326
98919.840702258239617
98925.359272326415521
98930.724605003939359
98934.574967176537029
98935.543396284803748
98932.869855029566679
98926.625676470561302
98917.444156172758085
98906.745791155466577
98896.080077405524207
98887.053582796666888
98880.332964550820179
98875.6344949422637
98872.159819263761165
98868.945361057893024
98865.167352665928775
98860.240766606497345
98853.997603714495199
98846.728192946393392
98839.076819955545943
98831.874271034437697
98825.866193218840635
98821.560993754101219
98819.23017671899288
98819.104740943876095
98821.436224407079862
98826.283134877056
98833.488642201860785
98842.490279689707677
98852.24273647480004
98861.285866431659088
98868.161278584535467
98871.75124128141033
98871.43218772704131
98867.128756649282877
98859.322041350329528
98849.048833912587725
98837.438446730840951
98825.407556742400629
98813.360708010572125
98800.94557207870821
98787.426887956404244
98772.213402518755174
98755.142520802430226
98736.596920393043547
98717.46762915464933
98699.044628947274759
98682.812955364162917
98670.103687905400875
98661.767073455790523
98657.951672934679664
98658.054916146036703
98660.824181043557473
98664.731417394563323
98668.473038094511139
98671.135587557335384
98672.090729851566721
98670.991721291415161
98667.869105121964822
98662.985162452445365
98656.636717297209543
98649.155687078047777
98641.084105507674394
98633.308761731765117
98977.652357967890566
98884.731913141775294
99169.406789538159501
99267.950714633683674
99154.793788325638161
99146.839630559654324
99116.242631537214038
99086.268641440867214
99112.404164998151828
99052.671008367105969
98911.28481651104812
98861.530410285296966
98948.364442102829344
99012.226546715348377
99007.871848024093197
98992.295150980411563
98945.543765971699031
98862.32101111546217
98816.53146917259437
98843.689662380027585
98872.653058099283953
98835.840297524249763
98798.532292259507813
98823.189522382555879
98879.534553899226012
98942.639976380392909
98993.109206193053978
98990.601808295454248
98937.811507574951975
98893.251128141884692
98886.849229657324031
98888.330761748569785
98875.008412953073275
98862.068424808472628
98856.636251450225245
98861.567037761356914
98890.434240069473162
98944.351422872263356
98994.705200784184854
99003.617385797697352
98967.867480179920676
98918.725925998121966
98890.754826602729736
98894.246160719543695
98910.258132496062899
98917.209385875510634
98912.73850125973695
98910.443705370795215
98919.939655864116503
98937.522589553977014
98953.726546707097441
98959.084890312791686
98948.838715071658953
98927.1970973052521
98917.300774922667188
98941.253546417268808
98995.114122534170747
99053.262407243179041
99087.153126190256444
99088.095968234192696
99074.348827092602733
99076.181976123218192
99103.92518124714843
99134.656393786222907
99143.38120233626978
99132.861520609250874
99124.678076056981809
99135.791739113352378
99156.103828125167638
99164.417215441804728
99147.151750507924589
99118.849120484272134
99104.3575676138571
99112.200447705617989
99129.90939723138581
99143.676784437921015
99149.879346778980107
99149.849084880916052
99141.822253062651725
99128.380716552492231
99117.414370660146233
99113.356733512031497
99110.836734515789431
99103.166115146217635
99089.436049808791722
99074.772716243445757
99062.710628221306251
99053.616173515256378
99044.074885845373501
99035.325863113102969
99035.131362662563333
99052.448465734269121
99086.583291017828742
99123.923245918165776
99145.514020464936038
99146.949129535700195
99143.656422972053406
99152.06765568384435
99168.393025907949777
99170.387099487299565
99142.589215110696387
99094.679411003351561
99056.082374881021678
99052.297869399437332
99085.201039922889322
99128.957495150403702
99157.604855385914561
99162.079585206825868
99148.110196105451905
99125.712722710013622
99103.308146613984718
99087.176928098720964
99082.598937347094761
99088.906029466335895
99096.657519514585147
99092.418159077991731
99070.182268882432254
99039.888536663871491
99019.522311925640679
99019.749588098813547
99034.067818315539625
99046.026530789720709
99044.75967909078463
99031.834541421369067
99017.637181949365186
99011.274753757636063
99016.238262647893862
99031.073566717590438
99052.138918544427725
99072.89304589216772
99083.998651862333645
99080.086949725839077
99063.964179954607971
99043.599255771638127
99027.708026876469376
99020.341356411023298
99024.238776584083098
99039.965047724195756
99065.833220916203572
99097.587910393151105
99130.05486216211284
99158.593689094035653
99179.890663600308471
99188.214072605624096
99178.929797294345917
99153.742167666030582
99120.713249127860763
99091.345303837981191
99075.404521396063501
99075.497985141599202
99086.163273239828413
99099.128330030842335
99110.160489837420755
99121.349512641143519
99138.066979818730033
99164.082138562676846
99197.411865516696707
99226.7518888910854
99239.877535493447795
99232.160774459582171
99206.711074329112307
99173.62462112698995
99144.737482230339083
99125.998859549610643
99116.274795362522127
99110.935379678790923
99104.319733012991492
99095.111544411018258
99087.254308361516451
99086.168379157956224
99095.66643530530564
99113.895581653414411
99134.334878076377208
99150.024228097478044
99157.678269814772648
99157.468234559491975
99152.393334457869059
99144.047332199959783
99134.516061775007984
99125.518462766034645
99118.034239144530147
99112.471034046655404
99107.761463807430118
99102.058918592811096
99094.562705499876756
99087.245412557909731
99084.55122784464038
99090.355966997958603
99103.412304306359147
99288.357831616216572
99283.562608457010356
99271.653253850861802
99253.140122770142625
99228.802982798370067
99200.31179063214222
99170.226806361359195
99141.826576263047173
99118.07159153043176
99100.274068450700724
99087.671112802519929
99077.791526002416504
99068.129194021850708
99057.707082392516895
99047.612794622167712
99040.114364432884031
99036.701357863348676
99036.930853715632111
99038.838905233118567
99040.078231229592348
99039.290985868370626
99036.277400814724388
99031.042833551706281
99023.025978127829148
99011.340881244861521
98995.856974980895757
98978.161856504404568
98961.563604002061766
98949.631976099859457
98944.180881541862618
98944.339944060397102
98947.460102520839428
98950.896894459627219
98953.632394313855912
98956.320814590726513
98959.851500376054901
98963.487014027530677
98964.405328929438838
98959.188029173281393
98946.245342183683533
98927.385843314768863
98907.433430045610294
98891.955741756231873
98884.577207118636579
98885.174114325316623
98890.191095867543481
98894.663767540871049
98894.654829308579792
98889.025691146438476
98879.53383229325118
98869.455346105925855
98861.665874379541492
98857.25927882680844
98855.565392731587053
98854.902925900081755
98853.549837266575196
98850.420580933583551
98845.257062458826113
98838.402040866669267
98830.63330623494403
98822.849076671205694
98815.833419348084135
98810.10256244050106
98805.958573597221402
98803.616527792648412
98803.550601075505256
98806.986926386671257
98815.69215494900709
98831.242820842511719
98853.484664908668492
98879.658213880175026
98904.776311018009437
98923.29011014245043
98931.097710039815865
98927.080835276516154
98913.16434273806226
98893.203917613936937
98871.095269478959381
98849.263468665201799
98828.351247172206058
98807.995006572324201
98788.0442540110962
98769.338318602007348
98753.598306902320473
98742.554114008133183
98737.007715889805695
98736.13654748738918
98737.514501204466796
98737.833348050786299
98734.019395117516979
98724.257928476348752
98708.708586156295496
98689.787826738625881
98671.593689355620882
98658.49230027620797
98653.713896538814879
98658.533580650633667
98672.090554235575837
98691.768685395567445
98714.11776507194736
98735.857827538377023
98754.619032593182055
98769.216144035875914
98779.375465324075776
98785.241718785327976
98787.028733623228618
98785.02198357139423
98779.782387179977377
98772.400196822825819
98764.37881160035613
98757.20977547026996
98751.923845754252397
98748.705024355556816
98747.044934226505575
98745.870475666393759
98744.269796383756329
98741.877116233095876
98739.024903601268306
98736.565995013676002
98735.405273400901933
98735.772934558743145
98737.186163888254669
98738.406652205201681
98737.899890881977626
98734.767380934310495
98729.175557062757434
98722.398682436352829
98716.371784437913448
98713.002169040366425
98713.38797496688494
98717.471724158123834
98724.143027355181403
98731.722340210239054
98738.511127943362226
98743.319988657603972
98745.710599059762899
98745.929653082828736
98744.831954188877717
98743.551160969684133
98743.154925901922979
98744.757763248562696
98749.324950682464987
98757.454844612337183
98769.266176648394321
98784.393477385834558
98801.984271850422374
98820.753568797517801
98838.967696713181795
98854.778147677439847
98866.707987572051934
98874.141588017606409
98877.447339628037298
98878.043311707035173
98877.688615428764024
98877.89146566290583
98879.599043590205838
98882.912858073832467
98887.095476248810883
98891.057710042921826
98894.059554994149948
98896.075478047714569
98897.594969160025357
98899.385297345419531
98902.01884265364788
98905.651355183188571
98909.83903822224238
98913.670684590470046
98916.326540974434465
98917.336373829268268
98916.963854926390923
98916.255964994517853
98916.780620624573203
98919.904973822209286
98926.27687067851366
98935.447118835450965
98945.872850389394443
98955.384199513850035
98961.521507156139705
98962.606910368907847
98958.146021567721618
98949.156956930761226
98937.600159329129383
98925.752285880269483
98915.583620427845744
98908.075599692339892
98903.476500243428745
98901.097448751344928
98900.223938714436372
98900.348562726736418
98901.268754082266241
98903.40222557503148
98907.320525596587686
98913.098268288958934
98920.225935434908024
98927.732860285497736
98933.929240069235675
98937.056211423099739
98936.045080492083798
98930.934964325089823
98922.146584375164821
98910.856592838768847
98898.750465421820991
98886.942682277687709
98876.252933535186457
98867.04113690154918
98859.328477876028046
98852.986151228484232
98847.857979992681067
98843.580584690062096
98839.596962518480723
98835.414756011130521
98830.84485121430771
98825.941723102499964
98821.072312092379434
98816.953546120988904
98814.534841046130168
98814.802270529253292
98818.561468839456211
98826.059498102564248
98836.788895988487639
98849.390310030023102
98861.90214432796347
98872.142948779655853
98878.338423055392923
98879.483079043697217
98875.555225508869626
98867.246110158448573
98855.713645495547098
98842.357631536826375
98828.339621727500344
98814.369310705602402
98800.555897211044794
98786.40089913806878
98771.208257262929692
98754.565930688288063
98736.644146805439959
98718.287014366796939
98700.789659251167905
98685.548382024469902
98673.762483832309954
98666.172054561044206
98662.838608719248441
98663.084868730220478
98665.723137572334963
98669.382536376419012
98672.799760598893045
98675.100313539995113
98675.914927689766046
98675.229811646073358
98673.197433048189851
98670.047042444857652
98666.018625611555763
98661.336886232835241
98656.262697873389698
98651.206891309338971
98917.996972007429576
99073.844147753727157
99141.725506597198546
99008.196907886347617
99050.800662830893998
99182.112490881801932
99115.806459313214873
99016.344802727195201
99057.909924063918879
99085.184281272537191
99019.586730982904555
98960.567044288938632
98970.048808915773407
98965.340235591123928
98928.320153364562429
98944.170505291200243
98948.354974029629375
98850.307205412216717
98751.377872883618693
98770.82760266965488
98821.763066536994302
98794.531119869905524
98753.983703908656025
98792.148015703540295
98881.779485156206647
98957.554548419589992
99002.622236685740063
99009.805291654600296
98979.196462022693595
98935.155237488361308
98901.629239090645569
98881.53280945973529
98871.232167929367279
98864.526945730598527
98851.63503790271352
98845.185547108267201
98870.150570246594725
98931.640100913355127
98993.527066799855675
99010.8749642954499
98975.598814322409453
98920.653082983248169
98884.268302670985577
98875.643155941768782
98882.486345441808226
98892.398988588611246
98906.069840264710365
98928.292596103579854
98953.809091256815009
98974.674272193617071
98991.396174997935304
99003.678544014706858
99002.373959153672331
98986.169465127619333
98971.939509523217566
98983.206167068739887
99027.00408840442833
99083.866486412531231
99126.812946772974101
99134.845327415707288
99120.309277423395542
99118.615721918977215
99147.310816224824521
99188.601197333569871
99209.729691014057607
99201.594159355357988
99186.260558545502136
99188.636519850930199
99213.374688059004257
99237.732490862414124
99241.85310473392019
99225.800809838154237
99203.510993050673278
99189.615652497654082
99187.082747256863513
99193.4172715775494
99201.3702382347401
99205.401333931760746
99198.670627705214429
99185.804755228935392
99174.193351695052115
99166.882171566961915
99162.865742071531713
99159.056446055619745
99151.021265531308018
99137.938321926412755
99121.97434239492577
99108.542877273634076
99099.920596716023283
99095.627323126929696
99095.176815743907355
99103.653585980297066
99123.49169699511549
99146.165926360117737
99157.745060301880585
99156.126799512145226
99153.666536226708558
99163.68506954080658
99180.944133503668127
99184.296732662289287
99160.767894205870107
99119.783751700539142
99089.214567692048149
99091.380760959029431
99126.773413592556608
99166.382196664970252
99183.583219449283206
99170.301228859272669
99138.327857179217972
99106.886342455123668
99090.239959761398495
99093.540451852240949
99111.806089441321092
99133.010836657645996
99141.859575212118216
99129.747387791518122
99101.806111874175258
99073.611475122190313
99058.627392825146671
99058.51531058170076
99062.972867294389289
99061.443008720554644
99050.954136205895338
99037.035285569450934
99026.096495282108663
99020.960266825408326
99023.198706011098693
99033.76697687106207
99050.971034540227265
99069.121948795276694
99081.417265533178579
99083.130873627116671
99076.265441568946699
99066.376597087582923
99057.454730838377145
99051.206199111926253
99050.489216575733735
99059.455793348068255
99079.497579146322096
99107.981318505786476
99137.732811242502066
99163.11617970984662
99177.52796824768302
99177.286363512423122
99164.151676174573367
99141.471931789710652
99116.193248657582444
99097.042843819683185
99089.260307726784959
99092.131418756194762
99100.746153881133068
99110.213967976174899
99118.537264926097123
99128.005015116927098
99142.280073595626163
99162.104175900007249
99184.214869553747121
99202.980397055274807
99212.345498377137119
99208.861404894836596
99196.303097652824363
99180.230289957296918
99164.668962886469672
99151.849291140882997
99141.122553849636461
99129.458460361129255
99115.714553836500272
99100.131507913945825
99085.907507130948943
99078.846973469131626
99082.993830078805331
99098.472695845091948
99119.914412450234522
99139.980015597757301
99153.500450209452538
99159.038197617584956
99156.934741956691141
99149.265382690224214
99137.44698965884163
99124.343018964515068
99113.100771784695098
99104.257617169612786
99096.164452503609937
99086.727466820753762
99075.554532928872504
99065.302230385670555
99061.398204014752991
99067.772124245151645
99083.248259752683225
99296.154373289435171
99295.071738447310054
99284.069839638876147
99264.195179109403398
99237.54016739843064
99207.282536974686082
99177.348323920785333
99151.576452605193481
99132.29536972680944
99119.35668853893003
99110.081888270113268
99100.753455537880654
99088.753628056758316
99073.969786800371367
99059.01993940101238
99047.582913573322003
99042.058086893608561
99042.23172768393124
99045.40624156082049
99047.928051851587952
99047.100415360924671
99041.878422535053687
99032.507707989847404
99019.919734061593772
99005.277407205780037
98989.917916290491121
98975.642510766963824
98964.853175090727746
98959.401216492478852
98959.130988404518575
98961.690010398349841
98963.950668255449273
98963.977141701077926
98962.046824470904539
98960.155631356974482
98960.178320960403653
98961.93608330625284
98962.838946453586686
98959.486603031458799
98950.01683153634076
98935.499643152652425
98919.617036929077585
98907.050322043403867
98901.379193254775601
98903.557751931773964
98911.46271514018008
98920.842127067779074
98927.138800102227833
98927.14816972168046
98920.077951030209078
98907.384194643062074
98891.818417727801716
98876.193528631119989
98862.53509502185625
98851.915602923763799
98844.531101850952837
98839.931254431867274
98837.38193342879822
98836.073053388914559
98835.201802572904853
98834.159402967401547
98832.724225993428263
98830.985212810439407
98829.221873956426862
98827.992466152150882
98828.464028146801866
98832.363937540416373
98841.415295354454429
98856.467829788845847
98876.430973389433348
98897.870988513910561
98915.981779091089265
98926.449155530368444
98927.288300554413581
98919.462669948799885
98906.021222967552603
98890.548775028408272
98875.406084951056982
98860.822959752258612
98845.37223926805018
98827.524940622621216
98807.148740923556034
98786.065360240769223
98767.368821229014429
98753.984446566464612
98747.239525792218046
98745.997813742302242
98746.906644751419662
98745.6611938020651
98738.735898322513094
98724.61921296811488
98704.288282980269287
98681.003958465167671
98659.478059495857451
98644.45428314502351
98639.083546590161859
98644.008423801904428
98657.514211143279681
98676.437220421241364
98697.325236472548568
98717.458986629426363
98735.210468638979364
98749.860036081256112
98761.129719353659311
98768.758506166632287
98772.350063597987173
98771.572644880099688
98766.556763319356833
98758.209846614234266
98748.136596995478612
98738.236874167458154
98730.032812044664752
98724.230511147587094
98720.554914912339882
98718.121299790946068
98716.084675648497068
98714.045354851725278
98712.252042651540251
98711.432928743830416
98712.266929115445237
98714.858713970475947
98718.462001329273335
98721.567186250103987
98722.612835844876827
98720.699204411066603
98715.93398473871639
98709.551461699127685
98703.430270550510613
98699.236763193563092
98697.834135201657773
98699.134817435537116
98702.207168883775012
98705.653377968759742
98708.195533170437557
98709.273137398369727
98709.024693441024283
98708.100513542900444
98707.452229755552253
98708.033738016616553
98710.490775365804438
98715.179403370551881
98722.46446397958789
98732.556449581737979
98745.455750347799039
98760.949664605519501
98778.450137824213016
98796.893557943287306
98814.771593735509668
98830.303314958437113
98841.785816190589685
98848.253279512442532
98849.873848442992312
98847.952332875982393
98844.666487713708193
98842.25899070831656
98842.152868205012055
98844.737493433189229
98849.320419789059088
98854.578377184239798
98859.315293867664877
98863.130082068644697
98866.515635732313967
98870.445547893905314
98875.732723826324218
98882.478582929601544
98889.847740761266323
98896.30642273495323
98900.381635403056862
98901.328989118308527
98899.534818789528799
98896.550089685246348
98894.673177982476773
98895.950681108326535
98901.371890523732873
98910.421175700495951
98921.103994887671433
98930.701864614209626
98936.608069866240839
98937.20561887275835
98932.410494067866239
98923.639445762717514
98913.269856225771946
98903.684753889305284
98896.514499061799143
98892.193084019934759
98890.251819367636926
98889.508547334844479
98888.989080003186245
98888.248499126260867
98887.504441256256541
98887.848250847280724
98890.3686066478258
98895.808069426522707
98904.336113304365426
98914.84268125082599
98925.53304824726365
98934.256471020431491
98939.234681912828819
98939.282855729266885
98934.006497847658466
98923.906645654016756
98910.160664090086357
98894.496164759548265
98878.757534564108937
98864.554145014742971
98852.950249787114444
98844.479222978552571
98839.222093688687892
98836.659938737619086
98835.532483299917658
98834.309982864841004
98831.735765885168803
98827.276149963523494
98821.291938058668165
98814.988914142886642
98810.159731850813841
98808.633371794960112
98811.773923045257106
98820.028043284328305
98832.725662117780303
98848.008008872580831
98863.266546408922295
98875.681803845029208
98882.962863586857566
98883.872336605156306
98878.457512700682855
98867.986381679569604
98854.301375106311752
98839.240625955193536
98824.195808477612445
98809.879912731819786
98796.316078330914024
98782.950187589871348
98768.981808693730272
98753.8498168715887
98737.581388980732299
98720.862621225474868
98704.88573183263361
98690.988489291194128
98680.274716785075725
98673.396894391669775
98670.437341400494915
98670.831916816663579
98673.479561851912877
98677.098561835213332
98680.620350659577525
98683.379671887407312
98685.143723782195593
98686.03682895564998
98686.334737374738324
98686.247460507278447
98685.800868616570369
98684.843271140285651
98683.185551976319402
98680.827599796961294
98678.117869038513163
98923.742245687666582
98998.63202952624124
99057.809060178027721
99095.779105186360539
99208.93677002498589
99223.949168062099488
99056.745997602920397
98977.538328977461788