/*--------------------------------*- C++ -*----------------------------------*\
  =========                 |
  \\      /  F ield         | OpenFOAM: The Open Source CFD Toolbox
   \\    /   O peration     | Website:  https://openfoam.org
    \\  /    A nd           | Version:  12
     \\/     M anipulation  |
\*---------------------------------------------------------------------------*/
FoamFile
{
    format      ascii;
    class       volScalarField;
    location    "0.0059";
    object      p_0;
}
// * * * * * * * * * * * * * * * * * * * * * * * * * * * * * * * * * * * * * //

dimensions      [1 -1 -2 0 0 0 0];

internalField   nonuniform List<scalar> 
75962
(
99322.152699123456841
99008.619676556336344
98919.30558099449263
98999.772039329676772
98953.967075503358501
99012.870522345503559
99099.992061200493481
99173.889973818251747
99210.782954309222987
99084.378097800785326
98870.063919998123311
98793.909043469117023
98903.61856385608553
99028.723195325961569
99072.192559142888058
99046.806028643855825
98971.430477381218225
98893.983072829592857
98872.826894686208107
98899.688113311945926
98920.808192848009639
98895.316234835248906
98865.611235921169282
98862.069693392302725
98869.358321503706975
98894.440547449354199
98926.57115463844093
98921.014416328878724
98878.501129892712925
98856.098573379626032
98879.801987403057865
98904.550642644870095
98898.5488334230904
98882.663213544292375
98878.324331310825073
98886.367005961481482
98908.327887307474157
98936.00438922426838
98953.401081232193974
98949.277125246211654
98924.867155302548781
98896.12926140599302
98886.286441941338126
98907.134099044720642
98938.259394311375218
98948.448541685502278
98931.162631776634953
98908.099550221333629
98897.512182240316179
98901.658512707203045
98909.722047854753328
98913.269179351613275
98902.216580109015922
98882.627764783683233
98878.317498354022973
98907.351682004707982
98959.715291581043857
99007.261677687245538
99027.201511965351528
99023.367608518004999
99019.626707204646664
99036.107755092991283
99067.869255599769531
99090.183819292200496
99089.976630724137067
99078.008028121083044
99075.174934648122871
99090.11246622800536
99105.51523694943171
99099.787361737020547
99066.964715459922445
99029.410606208868558
99016.810610837244894
99035.256762414326658
99065.885855155065656
99088.549419997434597
99097.687519926155801
99093.618427516848897
99078.53080479898199
99058.668174079532037
99047.472834758329554
99051.246074535883963
99060.34493901951646
99059.968612748445594
99047.945106028186274
99034.781883630043012
99026.217911679792451
99018.060043561155908
99003.130601582306554
98985.387884584139101
98979.968431963032344
98999.449130958892056
99041.807069508155109
99088.062651991829625
99118.640209424120258
99129.032245880618575
99132.312440321897157
99140.647000426964951
99150.894818035128992
99146.810463603396784
99117.81923105509486
99075.132762494162307
99043.693503938440699
99043.992154098450555
99071.601621728899772
99107.902294817075017
99132.974818003727705
99143.883754687965848
99145.524010250082938
99139.23205656054779
99122.277990117814625
99094.944946356321452
99068.071871040869155
99052.765182671646471
99050.657693108107196
99050.067191520545748
99037.864687206238159
99013.729354104027152
98993.262762364232913
98992.929808650587802
99012.526306333224056
99034.23392697928648
99040.670505361544201
99029.721358761220472
99014.122747279892792
99008.703357404068811
99018.582133568270365
99038.99703575046442
99062.094835901283659
99079.708738332701614
99084.108208415724221
99072.609690770448651
99048.859850759152323
99021.862733460162417
99002.085140330935246
98996.058270729496144
99005.691730152291711
99028.234566125756828
99058.824673089868156
99091.867400884308154
99123.140658618096495
99151.258819882408716
99174.071499259065604
99187.066725654833135
99183.767239567139768
99162.204829065900412
99128.878108378645265
99096.319943537149811
99075.500237335654674
99070.694446175097255
99078.81872605389799
99091.940641551787849
99104.682250504687545
99117.516425170091679
99134.91086724185152
99161.777300961199217
99195.612761419586604
99226.833027521308395
99242.207883964962093
99233.780847138914396
99203.989597890482401
99164.075657294859411
99128.939011341353762
99108.365909468906466
99102.715014806293766
99104.519965824176325
99105.478952302175458
99102.446374027829734
99099.019872517514159
99101.487888486837619
99113.554052949359175
99132.199333231968922
99149.834832830165396
99160.096910872205626
99160.473899054035428
99153.175538927869638
99142.920294044786715
99134.122819012176478
99128.965713227633387
99127.579469850970781
99128.402391358016757
99129.475357578179683
99128.820736916270107
99124.735545924748294
99117.167828696401557
99108.755184629117139
99104.225679628332728
99107.219933594547911
99259.9927879323659
99248.182353414696991
99231.161803575960221
99208.974254625660251
99182.705213495355565
99154.693232221703511
99127.9021108339075
99105.068389578445931
99087.635380568724941
99075.216132516405196
99065.982502669707173
99057.885094517783727
99049.997226448263973
99042.706407950492576
99037.043783903238364
99033.442120510022505
99031.161105793056777
99029.070079104043543
99026.690793059009593
99024.618717938297777
99023.780243302404415
99023.948347346391529
99023.076931892894208
99017.888228795898613
99005.903651934844675
98987.654930911085103
98966.900535526321619
98948.693708807128132
98936.890407124636113
98932.66811862438044
98934.621261291453266
98940.158073665748816
98947.110260040324647
98954.353786465828307
98960.928690607033786
98965.048114111763425
98963.945724731936934
98955.104094350797823
98938.138885291831684
98915.945259013606119
98894.07494155515451
98878.237879545631586
98871.25531183417479
98871.686393043099088
98874.61123307023081
98874.435084469630965
98868.153420755421394
98856.81675601862662
98844.677607713849284
98836.676383636280661
98835.724278082780074
98841.55689476680709
98851.028423304116586
98859.834872005943907
98864.409422454031301
98862.937655839588842
98855.445258140476653
98843.460244467802113
98829.18743438833917
98814.844013371533947
98802.179369333898649
98792.31060846260516
98785.613981321614119
98782.015621740298229
98781.636292231996777
98785.278594712188351
98794.451193292246899
98810.664664811192779
98834.161221755392035
98862.82221074217523
98892.031521760407486
98915.659018429098069
98928.242541925355908
98927.04477628787572
98912.935512131254654
98889.693956102753873
98862.294079931496526
98835.050862819960457
98810.493313267099438
98789.420010348636424
98771.573740878782701
98756.547076282920898
98744.376043830197887
98735.486634077969939
98730.255105958785862
98728.492736534797587
98729.059895050115301
98729.989391667972086
98728.997400481574005
98724.297108569298871
98715.445990626161802
98703.821844470512588
98692.256796238827519
98684.05618685434456
98682.035885819437681
98687.640963157784427
98700.465359846290085
98718.455433690105565
98738.593663293795544
98757.852571889729006
98773.99293708211917
98785.837533953148522
98793.163948261717451
98796.318700728515978
98795.936626291979337
98792.800986743517569
98787.935532641087775
98782.573863502126187
98777.921393675613217
98774.849728703455185
98773.664841687786975
98773.945767100740341
98774.740966429366381
98775.05308764653455
98774.104987834129133
98771.775158063464914
98768.504731415931019
98765.099257065186976
98762.312607122003101
98760.451992370770313
98758.925063980263076
98756.816004821375827
98753.223816640544101
98747.702675737746176
98740.73623269701784
98733.72870290146966
98728.609922710660612
98727.046461022691801
98729.946770488779293
98737.103656426101224
98747.20745470863767
98758.28266388612974
98768.303357578261057
98775.767843364810687
98779.983900277104112
98780.941192547470564
98779.444819613898289
98776.741030667370069
98774.404318835979211
98774.036481671908405
98776.962266654794803
98783.969132255704608
98795.265302842919482
98810.404836065994459
98828.318501953908708
98847.416410858757445
98865.831342175966711
98881.791594274822273
98894.118454776413273
98902.460265780056943
98907.33556798218342
98909.843588093746803
98911.259411591017852
98912.616940130785224
98914.406207183841616
98916.538168476705323
98918.612126834952505
98920.223214648285648
98921.30077375388646
98921.986014483074541
98922.56983048573602
98923.35561635371414
98924.499742620057077
98925.990673402222455
98927.643596046022139
98929.234713928337442
98930.56534178442962
98931.580543348100036
98932.538375041098334
98934.059097876146552
98936.873253307479899
98941.572413750909618
98948.382264806103194
98956.922210364151397
98966.225251128416858
98974.591472074622288
98980.154077203231282
98981.411199621346896
98977.777398633159464
98969.67568099181517
98958.44564230866672
98945.849011634199996
98933.762218240852235
98923.687670530547621
98916.325883621364483
98911.886943487625103
98909.972105103239301
98910.065120738348924
98911.982295645415434
98915.444280242547393
98920.141811620123917
98925.686614366262802
98931.024623943041661
98934.781451223316253
98935.587603663152549
98932.720838317341986
98926.30083365587052
98916.987922238491592
98906.232157925624051
98895.586864021359361
98886.658305368051515
98880.074643546147854
98875.516452202791697
98872.152497506875079
98868.997057080414379
98865.225149858932127
98860.269719121992239
98853.990069247913198
98846.69851378518797
98839.057892918324796
98831.902704973239452
98825.967292654007906
98821.747559381037718
98819.516168412665138
98819.50636012868199
98821.961904014766333
98826.933634971879655
98834.257439156353939
98843.349072556506144
98853.133770270826062
98862.123639326906414
98868.857438358289073
98872.24022256716853
98871.688542459072778
98867.165115393218002
98859.181785801745718
98848.786366580432514
98837.095831743441522
98825.00469394364336
98812.88846253232623
98800.375274835707387
98786.726549245067872
98771.357199571080855
98754.129708645647042
98735.468723953497829
98716.301121900076396
98697.930201910465257
98681.830936176207615
98669.307593476740294
98661.17446706519695
98657.544116280754679
98657.787710768316174
98660.640869460243266
98664.569291708030505
98668.266503343707882
98670.829556662356481
98671.652555576351006
98670.409804815746611
98667.147604885220062
98662.143140713800676
98655.70749893723405
98648.183263188475394
98640.113685573567636
98632.387154388095951
98985.285364296214539
98887.917478111616219
99178.358968039625324
99267.210565259811119
99153.325479970037122
99146.476993903706898
99114.447622431398486
99085.825270357599948
99111.669579362947843
99049.043168906937353
98908.210012948271469
98862.924670578810037
98951.739306474148179
99013.391104110094602
99007.856937171658501
98991.699795166103286
98943.657531781631405
98860.460084695136175
98816.645436366743525
98845.120121328087407
98872.783834138012026
98834.685256614917307
98798.687473848054651
98824.948776210017968
98881.724295992549742
98944.698297412527609
98993.969465400863555
98989.459747390894336
98935.929251683846815
98892.360745182944811
98886.834963701723609
98888.182473420296446
98874.683489368879236
98862.011730449565221
98856.779356876315433
98862.256959299207665
98892.008031398741878
98946.28452369790466
98995.772109440600616
99002.988813635907718
98966.061991666414542
98916.987462868011789
98889.875713175279088
98894.0433174783102
98910.113681195231038
98916.74055232781393
98912.174136788598844
98910.218662715895334
98920.132808137976099
98937.828549378697062
98953.830487049024669
98958.72131073786295
98947.969650795159396
98926.359573969253688
98917.264508286360069
98942.298080359760206
98996.724483721685829
99054.511420738897868
99087.344436985906214
99087.391231814835919
99073.620008610552759
99076.207201005076058
99104.523759187359246
99134.948337727983017
99142.968757657654351
99132.316333489783574
99124.677013392079971
99136.363885184735409
99156.737593732235837
99164.446706731789163
99146.610069509551977
99118.499055192660308
99104.733954017006909
99113.154278492511366
99130.928883523665718
99144.479838573592133
99150.425740696402499
99150.169150136876851
99141.883084909888566
99128.307025248548598
99117.433071561288671
99113.42364871976315
99110.739796654190286
99102.877623013875564
99089.110052752148476
99074.515542319422821
99062.627803707917337
99053.600405958743067
99044.054292134707794
99035.450834834889974
99035.658517895746627
99053.525700049649458
99087.969249141446198
99124.979995007859543
99145.814312987175072
99146.741131383285392
99143.58198243669176
99152.444568962033372
99168.741839491514838
99169.950521373059019
99141.251344351476291
99093.208922655743663
99055.553043696447276
99053.183432606281713
99087.077030311964336
99130.814465664036106
99158.738870711997151
99162.397640035735094
99147.889542818549671
99125.274750107360887
99102.931042779819109
99087.1382804588211
99083.004950598449796
99089.569747242319863
99097.108037539001089
99092.247365171700949
99069.472948711118079
99039.208411355866701
99019.431880436386564
99020.322185525146779
99034.855004013283178
99046.49287724091846
99044.759701291099191
99031.612895064434269
99017.546450050285785
99011.534593846197822
99016.886889172776137
99032.007905746242614
99053.185372763924534
99073.736214435528382
99084.311018115913612
99079.793748111915193
99063.278165690193418
99042.86311160682817
99027.178251496923622
99020.151124401047127
99024.450466129710549
99040.579177950596204
99066.75831738121633
99098.620149404567201
99131.042073491436895
99159.324848451491562
99180.241734421157162
99187.928494136795052
99177.959728913090657
99152.293432290738565
99119.19069439121813
99090.18068108978332
99074.855659027976799
99075.512059727756423
99086.448827835178236
99099.418347169252229
99110.413354552176315
99121.707404477187083
99138.714886621964979
99165.05212289726478
99198.443376756986254
99227.343384232794051
99239.727427569203428
99231.253741716398508
99205.308661483431933
99172.176348672874155
99143.594639394897968
99125.241316923609702
99115.802577038528398
99110.554379798020818
99103.919122040038928
99094.772293158748653
99087.165600872729556
99086.494091630447656
99096.424196285806829
99114.905669902713271
99135.32423736853525
99150.80961741086503
99158.204693383391714
99157.799682015000144
99152.612200927236699
99144.19046719801554
99134.664079366077203
99125.726482276906609
99118.354121801996371
99112.910803944105282
99108.283145109860925
99102.616269626494613
99095.174736414628569
99088.024498314829543
99085.648383174819173
99091.815255854351562
99105.039860678298282
99287.786173480300931
99282.772866679006256
99270.674007502166205
99251.977814923826372
99227.471546182612656
99198.853743293730076
99168.726336100997287
99140.400150299421512
99116.814058652933454
99099.218638048536377
99086.776834458229132
99076.973811776930233
99067.324770016901311
99056.915372257950366
99046.896588603354758
99039.541860040480969
99036.281377215971588
99036.600171367448638
99038.496187461045338
99039.639929737852071
99038.726433378702495
99035.591408481268445
99030.23252152344503
99022.069562933276757
99010.225627589592477
98994.62245249436819
98976.917338731494965
98960.45786313523422
98948.780955096255639
98943.607854504371062
98943.978324100506143
98947.213520585981314
98950.710517605024506
98953.524857782802428
98956.341727586841444
98960.001136360820965
98963.659755099564791
98964.416676433989778
98958.875969681481365
98945.577325008693151
98926.492669477040181
98906.550582405325258
98891.305766533580027
98884.263985028941534
98885.138170318328775
98890.256511953790323
98894.641491078218678
98894.434053510834929
98888.617186770949047
98879.047327360036434
98869.022928550853976
98861.371990099258255
98857.111559140248573
98855.514010515107657
98854.878510701353662
98853.498445077377255
98850.321166111767525
98845.114968515263172
98838.241397274978226
98830.485903999491711
98822.740606634120923
98815.776109148762771
98810.096568770633894
98806.003857890507788
98803.727134019442019
98803.777531039129826
98807.423948660405586
98816.445026535482612
98832.369453856954351
98854.92795158836816
98881.232304081640905
98906.220036855957005
98924.355502956663258
98931.641089387048851
98927.104029484282364
98912.792382209649077
98892.617869319248712
98870.449706967890961
98848.645514834191999
98827.78663778223563
98807.493026506184833
98787.642562025372172
98769.111883722915081
98753.632150327641284
98742.899744326510699
98737.648880466353148
98736.977215493257972
98738.39955077439663
98738.596840064492426
98734.541850913170492
98724.510061478213174
98708.768842597783078
98689.823460440646159
98671.80985436233459
98659.06879598206433
98654.746507946983911
98660.011711726227077
98673.914399621586199
98693.780237659171689
98716.147168446594151
98737.769518114902894
98756.332571223028935
98770.70541635263362
98780.644068377339863
98786.30031351163052
98787.881552823935635
98785.671852296829456
98780.249213685587165
98772.725325707666343
98764.617773916441365
98757.413791818587924
98752.12128286875668
98748.890150145787629
98747.188091317642829
98745.936752149660606
98744.248691721601062
98741.793536204888369
98738.933421809211723
98736.524642413714901
98735.443435459150351
98735.872390035860008
98737.29136542219203
98738.434192102431552
98737.778672141532297
98734.475932527886471
98728.752674347924767
98721.925744585270877
98715.947224351941259
98712.708876246309956
98713.266350393270841
98717.510166917971219
98724.287481141305761
98731.90498223216855
98738.674837474900414
98743.430211584243807
98745.762788507054211
98745.9453296680731
98744.849878223714768
98743.61254080638173
98743.301800238506985
98745.032940748846158
98749.757158938082284
98758.052329766083858
98770.01965375081636
98785.274525230692234
98802.946450878560427
98821.732182184859994
98839.883513724300428
98855.554544154045288
98867.295469217380742
98874.530050420507905
98877.670554355267086
98878.164538401673781
98877.772388651545043
98877.98937458229193
98879.737732022884302
98883.080625643022358
98887.2535080917296
98891.164717773441225
98894.097890454824665
98896.058496711484622
98897.554077598746517
98899.354531662305817
98902.015959504104103
98905.670792698059813
98909.848572503615287
98913.627926364191808
98916.196524175451486
98917.116696317709284
98916.691201049339725
98915.998526585652144
98916.611881923483452
98919.87546064495109
98926.389948184179957
98935.648211688967422
98946.056775955672492
98955.427391487217392
98961.322416224982589
98962.125581495318329
98957.421839401416946
98948.288793903775513
98936.719663371550268
98924.977891560527496
98915.00009606248932
98907.706107682432048
98903.302615102395066
98901.055351637580316
98900.268319266542676
98900.44230332353618
98901.410478085934301
98903.617092252898146
98907.628038779046619
98913.496670982916839
98920.693860923856846
98928.212640177283902
98934.31963428122981
98937.265714077220764
98936.029488228930859
98930.704620255201007
98921.728801199962618
98910.336149584909435
98898.201489104540087
98886.434698804383515
98875.847156350631849
98866.77403269194474
98859.204773041521548
98852.988350004699896
98847.952596914270543
98843.725031774156378
98839.75125722248049
98835.554670999961672
98830.965296607202617
98826.047088704319322
98821.181563318386907
98817.108583416746114
98814.792831276819925
98815.220959343452705
98819.174465420088382
98826.866315879145986
98837.746539229468908
98850.418994982683216
98862.896263063928927
98872.991809644358
98878.945885348206502
98879.794589918048587
98875.577494564611698
98867.035793042174191
98855.352300679776818
98841.913696638817783
98827.848596104231547
98813.830807335529244
98799.94037938117981
98785.673158179182792
98770.347190042914008
98753.571293232278549
98735.54709692853794
98717.151848204317503
98699.698353357467568
98684.578315372287761
98672.968178895796882
98665.576135659444844
98662.42841100761143
98662.816343860336929
98665.532266004258418
98669.205333762234659
98672.583294516560272
98674.8028847733367
98675.509806347079575
98674.710567346148309
98672.575352047730121
98669.34287863537611
98665.255367478443077
98660.539772368269041
98655.461357129970565
98650.433299124910263
98926.828657781239599
99078.94714307160757
99139.861887551742257
99005.292736487041111
99053.702539773134049
99183.2486171596247
99112.081160252389964
99015.137237274815561
99059.087075656963862
99084.383905604627216
99017.539804275875213
98959.994933328984189
98970.357241539037204
98964.253382240291103
98927.669916221959284
98944.776622109056916
98946.719749423369649
98846.641629595193081
98749.879636819736334
98772.252371513124672
98822.087479866590002
98793.236682073373231
98754.028055907197995
98794.595106320775812
98884.675382132627419
98959.536474042062764
99003.413921949249925
99009.196288255727268
98977.731142454314977
98933.747208638480515
98900.684524036681978
98881.045757402505842
98871.126375057836412
98864.46115571516566
98851.544735807838151
98845.596075580848265
98871.670388279308099
98933.761953638488194
98994.742342817626195
99010.230239305019495
98973.571189551235875
98918.570258238047245
98883.053008413102361
98875.185519391408889
98882.361448392024613
98892.501222180013428
98906.449734527690453
98928.941820291613112
98954.440379753476009
98975.056886889447924
98991.570211563142948
99003.558936136469129
99001.728098069230327
98985.314038091120892
98971.624311905819923
98983.801534294965677
99028.275114866686636
99085.014706426140037
99127.051104330850649
99134.023101587328711
99119.393802871229127
99118.595443587808404
99148.160905692537199
99189.361447213770589
99209.635915823964751
99200.908552001434145
99185.889112398275756
99189.083701634051977
99214.317050840385491
99238.367076465801802
99241.845668689769809
99225.394674254392157
99203.150144826955511
99189.571224546452868
99187.395556733521516
99194.006783984368667
99201.999006024911068
99205.791613573819632
99198.712354265517206
99185.663527408512891
99174.068521276014508
99166.861375134685659
99162.890399287178298
99159.018516640848247
99150.887394654346281
99137.683727862866363
99121.746938899639645
99108.492136560205836
99100.039827471686294
99095.819150548835751
99095.497992272896226
99104.261053597481805
99124.289425259514246
99146.720795606946922
99157.775677380384877
99155.875082043028669
99153.683896409871522
99164.134276789962314
99181.300759422083502
99183.914923715026816
99159.589421816403046
99118.545953857974382
99088.906428683418198
99092.451908029266633
99128.633640960702905
99167.96574419355602
99184.18323285538645
99169.965739027786185
99137.633282663344289
99106.477275742741767
99090.468895249665366
99094.427525217906805
99113.026917634837446
99134.034109771731892
99142.193722938623978
99129.315423071224359
99101.048455848751473
99073.09893213264877
99058.636257885067607
99058.861953991043265
99063.231112972542178
99061.381559858622495
99050.662493311276194
99036.75653974810848
99025.990281862323172
99021.100221742701251
99023.622059945540968
99034.479435024608392
99051.821722082560882
99069.852243599103531
99081.77300762271625
99083.055733584260452
99075.920192334160674
99065.93855308003549
99057.028122196366894
99050.888716175148147
99050.434929173527053
99059.785919187270338
99080.193958904361352
99108.859295450049103
99138.511964148041443
99163.586016394940089
99177.426859221159248
99176.614446212042822
99163.018523914841353
99140.089794111903757
99114.904538357455749
99096.142816406616475
99088.839488089288352
99092.070882899395656
99100.837413156667026
99110.304287048900733
99118.624914791449555
99128.20535249056411
99142.675052679216606
99162.633097024212475
99184.699394743831363
99203.233942511782516
99212.164288271713303
99208.271137589938007
99195.501759363382007
99179.390249392410624
99163.901992551473086
99151.186419839010341
99140.493452454829821
99128.804727041962906
99115.047789192540222
99099.527783561818069
99085.560157896761666
99078.945707354272599
99083.598280916674412
99099.463542969606351
99121.03649313886126
99140.983956379990559
99154.268340477225138
99159.540466305421432
99157.200669891768484
99149.366032421821728
99137.451156734896358
99124.394763717267779
99113.289895191512187
99104.577483438843046
99096.552058527973713
99087.132917711744085
99076.014622128437622
99065.966330630661105
99062.45562464944669
99069.270500873477431
99085.000380875018891
99296.011595554184169
99294.592256876218016
99283.282617152959574
99263.13865958682436
99236.284255223363289
99205.930844035348855
99176.028446010343032
99150.404076661172439
99131.321703919224092
99118.541606892540585
99109.312916722599766
99099.917866042189416
99087.805762115953257
99072.9634281329636
99058.084797544361209
99046.84037262777565
99041.544930870033568
99041.877132967216312
99045.063833660897217
99047.456997844637954
99046.424344283572282
99040.990514802440885
99031.449480478127953
99018.754189624116407
99004.07200814402313
98988.742656716742204
98974.583126288824133
98963.996650226734346
98958.779517453964218
98958.688223813078366
98961.315951763288467
98963.557651890689158
98963.559792522893986
98961.682325993097038
98959.945347557033529
98960.153772093719454
98962.00568113855843
98962.825251571106492
98959.224543758522486
98949.449960846293834
98934.715539616314345
98918.802799358149059
98906.406966167662176
98901.033934861872694
98903.510477741016075
98911.592188475216972
98920.962729692226276
98927.079028066000319
98926.812485239002854
98919.470513936044881
98906.591981127363397
98890.962898735015187
98875.388237052437034
98861.857640575311962
98851.406371651566587
98844.193193416882423
98839.744709782258724
98837.314399153663544
98836.086838709568838
98835.255233108910033
98834.221824401727645
98832.77757627570827
98831.021134969516424
98829.249031244879006
98828.047873995790724
98828.629831832105992
98832.743903237933409
98842.09782112686662
98857.470147352330969
98877.656974844896467
98899.122378289961489
98917.029652129582246
98927.125600322702667
98927.550257428578334
98919.385771637695143
98905.747870136183337
98890.213335706590442
98875.073696084727999
98860.479442608702811
98844.968694823764963
98827.047701978663099
98806.660620394832222
98785.69734756705293
98767.264778000302613
98754.233612690877635
98747.829972288469435
98746.802629184632679
98747.725714973043068
98746.295860968399211
98739.061784385121427
98724.63056944955315
98704.101319093941129
98680.82476125244284
98659.539592124492628
98644.944005638477392
98640.086948534590192
98645.483126192804775
98659.320222963724518
98678.401798703373061
98699.295254862314323
98719.330692689793068
98736.936369677714538
98751.427659895431134
98762.534217439242639
98769.983614867262077
98773.36773039829859
98772.357959710701834
98767.106104554419289
98758.556014332934865
98748.339340667720535
98738.364883629910764
98730.136332064765156
98724.326084756525233
98720.628038922295673
98718.149301091514644
98716.0625584214431
98713.996122103359085
98712.227234939753544
98711.482243963444489
98712.40759224856447
98715.059670230853953
98718.645491782430327
98721.6355403172347
98722.494677876922651
98720.371925674233353
98715.435401589405956
98708.967785207540146
98702.860071611532476
98698.752697431569686
98697.472302842128556
98698.886793222554843
98702.033513816277264
98705.498409522493603
98708.020238712269929
98709.072767755918903
98708.818526247705449
98707.92482352416846
98707.349710684327874
98708.039253896247828
98710.62351940498047
98715.452905779253342
98722.887053081562044
98733.128038172639208
98746.168584972459939
98761.781360339795356
98779.358665559542715
98797.816701844669296
98815.626549736916786
98831.005777175130788
98842.268597104266519
98848.498568891853211
98849.913422544283094
98847.863264775223797
98844.548770323599456
98842.195124942736584
98842.184391209986643
98844.859496546618175
98849.491038322245004
98854.74196301032498
98859.434479001982254
98863.208161938397097
98866.587041103528463
98870.553073145274539
98875.893972546356963
98882.66986878903117
98890.004583395158988
98896.352323058192269
98900.263192883707234
98901.044742965066689
98899.146786127821542
98896.166464083056781
98894.406607199824066
98895.870121548286988
98901.475454135172185
98910.630604568548733
98921.286579618579708
98930.714454029905028
98936.347861736561754
98936.649532918832847
98931.629047310168971
98922.765856087688007
98912.457060890708817
98903.051253772951895
98896.106171191262547
98892.000366947177099
98890.208189120108727
98889.535966375377029
98889.028016675700201
98888.277084612796898
98887.555404775499483
98887.987780514959013
98890.648810396902263
98896.263498646832886
98904.952858535005362
98915.546192244830308
98926.220987458975287
98934.811766172977514
98939.560763111992856
98939.322148142076912
98933.760790029686177
98923.427495902389637
98909.532029325113399
98893.820760754431831
98878.139095242702751
98864.080082275395398
98852.676193754829001
98844.42062883869221
98839.354294599033892
98836.918649871062371
98835.82755031088891
98834.556156790044042
98831.882367684986093
98827.319291269668611
98821.271807822078699
98814.97786270553479
98810.25447416777024
98808.929637357534375
98812.336250885840855
98820.861163844092516
98833.767478399953688
98849.139907833479811
98864.341138885982218
98876.554589187289821
98883.531706604058854
98884.092247739536106
98878.349389988856274
98867.624860373689444
98853.788998132687993
98838.674814038095064
98823.635145006948733
98809.334574025764596
98795.753771594041609
98782.315592961531365
98768.227951800072333
98752.960051581292646
98736.576497357295011
98719.801534560305299
98703.849602862304891
98690.055211222934304
98679.499869076142204
98672.804971361008938
98670.020149995369138
98670.554505320105818
98673.291843349201372
98676.944617806089809
98680.452358217182336
98683.166914673274732
98684.872761394784902
98685.706632067944156
98685.949878078390611
98685.81368729325186
98685.322136583359679
98684.320232714264421
98682.620903093426023
98680.234057760215364
98677.520618427588488
98923.260571755148703
99002.711877263966016
99060.062003001221456
99099.554787668661447
99212.817969650903251
99221.259451653415454
99052.370682682769257
98978.708005682972725