/*--------------------------------*- C++ -*----------------------------------*\
  =========                 |
  \\      /  F ield         | OpenFOAM: The Open Source CFD Toolbox
   \\    /   O peration     | Website:  https://openfoam.org
    \\  /    A nd           | Version:  12
     \\/     M anipulation  |
\*---------------------------------------------------------------------------*/
FoamFile
{
    format      ascii;
    class       volScalarField;
    location    "0.0059";
    object      pMean;
}
// * * * * * * * * * * * * * * * * * * * * * * * * * * * * * * * * * * * * * //

dimensions      [1 -1 -2 0 0 0 0];

internalField   nonuniform List<scalar> 
75962
(
98749.669885840441566
98749.966302335786168
98749.702453055273509
98749.503241113532567
98749.420026252540993
98749.272355069420883
98749.018052563798847
98748.697818553220714
98748.300158122117864
98747.864810931088869
98747.481095123483101
98747.150052836877876
98746.781400564621435
98746.320651620641002
98745.799146650533658
98745.260526517216931
98744.736592253568233
98744.242357592054759
98743.76657910933136
98743.277997552824672
98742.764491552676191
98742.249631935512298
98741.756103443025495
98741.273686891669058
98740.792112092050957
98740.308037542650709
98739.81035252820584
98739.306249447501614
98738.820280977553921
98738.359424498412409
98737.902427897119196
98737.43263883763575
98736.961263222168782
98736.501978212865652
98736.052018367889104
98735.606224458198994
98735.158655324543361
98734.705028312353534
98734.245689814211801
98733.790491157269571
98733.353388905728934
98732.941732006831444
98732.55176314356504
98732.167812267463887
98731.774436227744445
98731.37237146460393
98730.977761975300382
98730.601177580814692
98730.240821736966609
98729.888838149883668
98729.539929511927767
98729.193136808418785
98728.85595779621508
98728.536859737941995
98728.235855600956711
98727.940487036219565
98727.634085171521292
98727.310496654856252
98726.978159977312316
98726.654058441024972
98726.346122778777499
98726.047200281667756
98725.744582881379756
98725.435086752549978
98725.128494987031445
98724.834866969089489
98724.553881853018538
98724.2753051341424
98723.990208876159159
98723.70213173252705
98723.424527005496202
98723.168766985909315
98722.93152901288704
98722.696011663705576
98722.448336590896361
98722.186246569413925
98721.914266122621484
98721.638091114567942
98721.363253545816406
98721.095893402161892
98720.836495584066142
98720.578502872100216
98720.315019086701795
98720.046928988449508
98719.780509889489622
98719.521204996897723
98719.269643535881187
98719.025805199475144
98718.793969043676043
98718.57930419954937
98718.381294024162344
98718.190545990975806
98717.99388065111998
98717.78342488965427
98717.56182834682113
98717.33808179377229
98717.118544458629913
98716.901595110204653
98716.682025468238862
98716.460827280665399
98716.248018437283463
98716.054368830707972
98715.879698724776972
98715.711565024088486
98715.534629845569725
98715.339019100123551
98715.126973250909941
98714.906171844122582
98714.681788464295096
98714.45676191271923
98714.234819370365585
98714.021245201918646
98713.819260637974367
98713.62627436404
98713.435817468780442
98713.243833410815569
98713.053203253439278
98712.871264094035723
98712.70108859539323
98712.536734878929565
98712.367589597561164
98712.186940454732394
98711.998579303661245
98711.811668020862271
98711.632294877315871
98711.458625633938937
98711.28370090899989
98711.100733587009017
98710.906580344890244
98710.702429116616258
98710.49335299206723
98710.287165136483964
98710.09169432624185
98709.911909402682795
98709.747690797928954
98709.594280042874743
98709.444565989178955
98709.291887691098964
98709.131657618025201
98708.961379240368842
98708.780691288600792
98708.590674260762171
98708.393099335822626
98708.190846237601363
98707.989707856759196
98707.797660268362961
98707.622078945758403
98707.466201481031021
98707.327341225856799
98707.198998847830808
98707.07422478220542
98706.948921443079598
98706.822310901450692
98706.695088227730594
98706.567137404999812
98706.435663038151688
98706.296131534691085
98706.146456122034579
98705.989861985013704
98705.834544679266401
98705.689962578151608
98705.562688861129573
98705.453659912018338
98705.358335246972274
98705.270189180446323
98705.184702877886593
98705.101235270194593
98705.021872963130591
98704.948434953766991
98704.879883721121587
98704.812277053453727
98704.741246857491205
98704.664828624765505
98704.584615830652183
98704.504616737947799
98704.42878125939751
98704.359184702421771
98704.295781441600411
98704.236961302623968
98704.180141508666566
98704.123072607326321
98704.064686469442677
98704.004936100624036
98703.94454049905471
98703.884588647051714
98703.82557222477044
98703.765925313782645
98703.701684258136083
98699.285728495699004
98699.182043221298954
98699.084819049181533
98698.99497582874028
98698.913450765714515
98698.84065869297774
98698.77608692208014
98698.718419530472602
98698.665890724339988
98698.616816124413162
98698.570132953551365
98698.525719507189933
98698.48404205654515
98698.44542003145034
98698.409644161409233
98698.376119839056628
98698.344424836599501
98698.314579146477627
98698.286782419891097
98698.260975255034282
98698.236549430512241
98698.212486902790261
98698.188230211482733
98698.164510657574283
98698.143520506215282
98698.128221497696359
98698.12102504853101
98698.12258722804836
98698.131505404249765
98698.145074360058061
98698.160489731759299
98698.175552308675833
98698.188683718486573
98698.198662792754476
98698.204582379170461
98698.206145170173841
98698.204215210134862
98698.201169587875484
98698.200492306699743
98698.205502960641752
98698.217890708401683
98698.236862598132575
98698.259628682135371
98698.282862134830793
98698.304354620253434
98698.324100911719142
98698.34414613241097
98698.367391127627343
98698.39582879410591
98698.429439233674202
98698.466340640807175
98698.503817616365268
98698.539702943220618
98698.57332659047097
98698.605496514268452
98698.637946237053256
98698.672714846936287
98698.711614975356497
98698.755898705028812
98698.806089302815963
98698.86197067410103
98698.922862603751128
98698.987877134102746
98699.056249526853207
98699.127180877097999
98699.199493269916275
98699.27127863788337
98699.339782543916954
98699.401635947782779
98699.453693764953641
98699.494105744437547
98699.523224864140502
98699.543898116215132
98699.560835178461275
98699.579370779305464
98699.604014802520396
98699.637502248151577
98699.680604325447348
98699.732578786977683
98699.791852095717331
98699.8566868185153
98699.92549719143426
98699.996698997856583
98700.068563759341487
98700.139178279307089
98700.206657022761647
98700.269551558958483
98700.327182984445244
98700.379801729723113
98700.428502687704167
98700.474763507867465
98700.519833094396745
98700.564080117546837
98700.606672770503792
98700.645694260354503
98700.678542864974588
98700.702611583838006
98700.715961000954849
98700.717789543283288
98700.708440932183294
98700.689125945355045
98700.661482712632278
98700.627175182118663
98700.587691065666149
98700.544226296464331
98700.497741460785619
98700.449015373305883
98700.398647524125408
98700.346997131026001
98700.294075603495003
98700.239756704177125
98700.183985058640246
98700.127011392483837
98700.06940498171025
98700.012052903271979
98699.955954253629898
98699.901830425485969
98699.849927177623613
98699.800115742473281
98699.752133218207746
98699.705867307289736
98699.661575138306944
98699.619976052679704
98699.582111549694673
98699.549079073418397
98699.52166127700184
98699.500024992288672
98699.483649825662724
98699.47148467610532
98699.462252702534897
98699.454805616464
98699.448424164467724
98699.442846629404812
98699.438246410165448
98699.435096067754785
98699.433960764086805
98699.435308377476758
98699.439290424226783
98699.445646255582687
98699.453709902722039
98699.46250466319907
98699.470808560799924
98699.477313860552385
98699.480759974831017
98699.480081629182678
98699.47454566808301
98699.463890067243483
98699.448406986630289
98699.428895795019343
98699.406451384376851
98699.382268842571648
98699.357408585128724
98699.332692146024783
98699.308620009745937
98699.285410440235864
98699.263084241290926
98699.241586360833026
98699.220868099524523
98699.200898983588559
98699.181633007319761
98699.162997430175892
98699.14489708225301
98699.127232782033389
98699.109936411114177
98699.092955911328318
98699.076318908351823
98699.060203296248801
98699.044986001288635
98699.031013437925139
98699.018451005875249
98699.007159106928157
98698.996662062927498
98698.986207619309425
98698.97497185881366
98698.962381048462703
98698.948360574577237
98698.933460181957344
98698.918808810922201
98698.905840266437735
98698.896028579416452
98698.890449432481546
98698.889612325569033
98698.893346717813984
98698.90086282446282
98698.910921487156884
98698.922199657943565
98698.933497941805399
98698.943975825954112
98698.953035932034254
98698.960200726796756
98698.96511169585574
98698.967400121022365
98698.966753400076414
98698.963154029450379
98698.956939839874394
98698.94895186444046
98698.940314396779286
98698.932144911115756
98698.925357746877125
98698.92047000596358
98698.917572616148391
98698.916284694729256
98698.915930309303803
98698.915742156081251
98698.915082930237986
98698.913680449797539
98698.911665068662842
98698.9094444472139
98698.907546277274378
98698.906486258594668
98698.906611587735824
98698.908066371586756
98698.910834991329466
98698.914809294728911
98698.919739760633092
98698.925211179535836
98698.930724094752804
98698.93579793072422
98698.940024675277527
98698.943168885569321
98698.94531203788938
98698.947047790890792
98698.949546166390064
98698.954400769391214
98698.963296552756219
98698.977780198183609
98698.999074496896355
98699.028033877708367
98699.065236955633736
98699.111151307137334
98699.166280267687398
98699.231372377849766
98699.307527576587745
98699.396098525001435
98699.498503430193523
98699.615950953026186
98699.749248746651574
98699.898694485120359
98700.064122301992029
98700.245047029282432
98700.440912385645788
98700.651301124846213
98700.876019387273118
98701.115126536897151
98701.369015799602494
98701.638511563156499
98701.924818322790088
98702.229378634976456
98702.553782419869094
98702.899632014989038
98703.268435553254676
98703.661563657020452
98704.080200727999909
98704.525380858089193
98751.009494216632447
98751.197727623643004
98750.153054819849785
98749.922942706936738
98749.819515204741037
98749.573681852052687
98749.238214780780254
98748.907753247782239
98748.543316839437466
98748.127762903430266
98747.728498035969096
98747.364376278404961
98746.965541006386047
98746.500752943436964
98746.004878720181296
98745.493983940948965
98744.972859865330975
98744.474682004933129
98744.008905515918741
98743.538286756243906
98743.040519045520341
98742.543691952494555
98742.079266779488535
98741.624008323866292
98741.148008436299278
98740.645107995820581
98740.117675453468109
98739.581381609634263
98739.064737563094241
98738.576579457134358
98738.098511625474202
98737.619177550557652
98737.146134675538633
98736.687907058905694
98736.240519676561235
98735.801479114175891
98735.36266934183368
98734.908893800035003
98734.434427052314277
98733.953499341470888
98733.492495493337628
98733.066996649096836
98732.669493556619273
98732.280799296087935
98731.890489630488446
98731.500373308095732
98731.118455668707611
98730.747261239041109
98730.382804741646396
98730.019828054573736
98729.656690502306446
98729.296660070976941
98728.946372204969521
98728.615368668135488
98728.305235908468603
98728.003959584297263
98727.694205050371238
98727.366032011879724
98727.025493018139969
98726.690084429341368
98726.373042692328454
98726.07139387303323
98725.770151014541625
98725.460130907202256
98725.147910731961019
98724.848038183292374
98724.565037465814385
98724.28949419100536
98724.009704873868031
98723.723748899501516
98723.442762346123345
98723.178816693965928
98722.931685018949793
98722.690064110414824
98722.443360138189746
98722.18825332223787
98721.926275844482007
98721.660835961505654
98721.395307596263592
98721.134077409878955
98720.877706339058932
98720.62169781573175
98720.362510370105156
98720.101886697419104
98719.843951575749088
98719.591602845204761
98719.34642229534802
98719.10826468639425
98718.879395331314299
98718.662155746729695
98718.456361736374674
98718.255610123887891
98718.050107565344661
98717.833562885323772
98717.609047228106647
98717.386590594192967
98717.172037951269886
98716.961130633018911
98716.745515884351335
98716.524953814339824
98716.310823449442978
98716.116375630241237
98715.943901982653188
98715.780618920442066
98715.607965812028851
98715.413542857975699
98715.199726911785547
98714.977655664653867
98714.757618564428412
98714.54484262529877
98714.340056729997741
98714.141420224870672
98713.945277827937389
98713.746547547081718
98713.542070671755937
98713.334386737318709
98713.131665620283457
98712.941500372355222
98712.763777478758129
98712.590390750410734
98712.412154076839215
98712.226219734176993
98712.037301903197658
98711.852083319725352
98711.673465559346369
98711.499397596679046
98711.32451978874451
98711.143199521509814
98710.952025722537655
98710.750410553155234
98710.541883385478286
98710.333961091469973
98710.134670843166532
98709.948909608734539
98709.776993024643161
98709.615613708054298
98709.459868901089067
98709.304117725230753
98709.142797915366828
98708.971593868904165
98708.789413128106389
98708.596906414473779
98708.396886135160457
98708.193138768954668
98707.992915850947611
98707.804190706563531
98707.632965593060362
98707.480500485617085
98707.343022641885909
98707.213622952607693
98707.086065149720525
98706.957663828026853
98706.828991301023052
98706.701168595231138
98706.573370802681893
98706.442129114613635
98706.302950711309677
98706.153938255432877
98705.998945367857232
98705.845521858762368
98705.701682048529619
98705.572782861636369
98705.459165172927896
98705.357169970433461
98705.262840938317822
98705.173960998974508
98705.090401951398235
98705.013645952756633
98704.94458149530692
98704.881428802968003
98704.819933649443556
98704.755410742276581
98704.684980740305036
98704.60888775184867
98704.529867606775952
98704.451466231403174
98704.376067253484507
98704.304807748092571
98704.238162790279603
98704.175390042815707
98704.115490731986938
98704.05747509036155
98704.000508212120621
98703.944385106282425
98703.889482394821243
98703.835680320451502
98703.780852280455292
98703.720549852907425
98703.649482061897288
98699.385044940601801
98699.267441627525841
98699.154776579438476
98699.048172395327128
98698.948892464875826
98698.857925809235894
98698.775714240036905
98698.701974041541689
98698.635463278609677
98698.574288787916885
98698.516600867034867
98698.461317550740205
98698.408543897618074
98698.359193779542693
98698.31406566669466
98698.272982893933658
98698.234823668783065
98698.198271069937618
98698.162393502454506
98698.126915618253406
98698.092164846282685
98698.058777650003321
98698.027426848202595
98697.998773911691387
98697.973799889921793
98697.953980592355947
98697.94081848031783
98697.934994487484801
98697.935800179926446
98697.941397454371327
98697.949743171047885
98697.959218277523178
98697.968853196580312
98697.97805122275895
98697.986022194134421
98697.991527265738114
98697.993385814959765
98697.991476138951839
98697.987445760285482
98697.98447459214367
98697.985999265190912
98697.994147564881132
98698.008825293276459
98698.027846695971675
98698.048032176971901
98698.066752520084265
98698.083194859122159
98698.098592834692681
98698.115365907331579
98698.135834449552931
98698.161169021215755
98698.191156112108729
98698.22473677090602
98698.260694523793063
98698.298178557161009
98698.33698224221007
98698.377503805459128
98698.420434653322445
98698.46650272187253
98698.516177327473997
98698.569611148821423
98698.626652029910474
98698.6869972643035
98698.750374757059035
98698.81649600660603
98698.884959280490875
98698.954928108170861
98699.024749219955993
98699.091716937036836
98699.152495800022734
98699.20419403759297
98699.245524347425089
98699.277431467038696
98699.30298677724204
98699.326527864177478
98699.352355094568338
98699.383672325202497
98699.422149151243502
98699.468115596740972
98699.521124293416506
98699.58050610643113
98699.645595720023266
98699.715535900380928
98699.78885547441314
98699.863375635977718
98699.936493686167523
98700.005707779724617
98700.069262057819287
98700.126739332190482
98700.179163483117009
98700.228619124711258
98700.277451815927634
98700.327286088504479
98700.378365236334503
98700.429323785749148
98700.477456227075891
98700.51946003640478
98700.552255967835663
98700.573651554586831
98700.582715819415171
98700.579748736607144
98700.56590465127374
98700.542717205418739
98700.511757714120904
98700.474413742180332
98700.431861837103497
98700.385203097466729
98700.335582738931407
98700.284093014706741
98700.231579257990234
98700.17845205339836
98700.124779045247124
98700.070534054437303
98700.015828767907806
98699.96110036149912
98699.907081871730043
98699.854541887398227
98699.804016590147512
98699.755585888313362
98699.708906135536381
98699.663450721622212
98699.618914363993099
98699.575489174225368
98699.53401161027432
98699.495844463410322
98699.462421425705543
98699.434777992442832
98699.413313621407724
98699.397710154444212
98699.387076361177606
98699.380218774371315
98699.376078556611901
98699.374003108765464
98699.373864797235001
98699.375935741118155
98699.380633903623675
98699.38830513881112
98699.399079125723802
98699.412727087255917
98699.428717375500128
98699.446243040685658
98699.464190915896324
98699.481315155353514
98699.496353514376096
98699.508157348260283
98699.515772698650835
98699.518515429954277
98699.516169387075934
98699.509123997966526
98699.498342984661576
98699.48517098557204
98699.471038642659551
98699.457154839721625
98699.444308785808971
98699.432873488287441
98699.422814916077186
98699.413801188857178
98699.405459942048765
98699.397578635602258
98699.390168525904301
98699.383361360814888
98699.377212919614976
98699.371618995282915
98699.36631674853561
98699.360987469553947
98699.355433918040944
98699.349737210723106
98699.344318588715396
98699.339844148023985
98699.336997161226464
98699.336216486830381
98699.337451694504125
98699.340107125666691
98699.343177778180689
98699.345610998512711
98699.346748474883498
98699.346663500458817
98699.346227219910361
98699.346958297523088
98699.350641207129229
98699.358842606336111
98699.372490069305059
98699.391631695834803
98699.41554135910701
98699.442952362573124
98699.472506477934076
98699.502982745834743
98699.533594489417737
98699.563889858749462
98699.593662771527306
98699.622678826010088
98699.650483936624369
98699.676485101808794
98699.700076444627484
98699.720734628906939
98699.738284815306542
98699.753184616085491
98699.766521628189366
98699.779679127183044
98699.793968322381261
98699.810549864909262
98699.830081756183063
98699.852818407976883
98699.878619773313403
98699.906957125873305
98699.937132273204043
98699.968475318848505
98700.000474775180919
98700.0328629349533
98700.065681038700859
98700.099238295297255
98700.133978206358734
98700.170332572553889
98700.208689422201132
98700.249323756841477
98700.292300665154471
98700.337368265289115
98700.383947052236181
98700.431183744280133
98700.478159740348929
98700.524253274605144
98700.56935645872727
98700.614005405863281
98700.659373651520582
98700.707199487791513
98700.759543361942633
98700.818367502346518
98700.885242664051475
98700.961178603087319
98701.046710280192201
98701.142126913386164
98701.247724573942833
98701.364048837334849
98701.49201304440794
98701.632803379165125
98701.787696511208196
98701.957879120178404
98702.144196431880118
98702.347013870647061
98702.566223813904799
98702.801375152077526
98703.051861168569303
98703.317136597222998
98703.596920839379891
98703.891313890315359
98704.200796908815391
98704.526159529064898
98704.868498902214924
98705.229150062019471
98705.609533007343998
98706.011036494805012
98706.434993791015586
98706.882637496091775
98707.355087722273311
98707.853284225901007
98748.542210393425194
98749.799768752738601
98749.600284362226375
98749.56646326907503
98749.621279535276699
98749.411879292121739
98749.091226383505273
98748.839533194579417
98748.581623311081785
98748.239544988668058
98747.854260125677683
98747.465458147053141
98747.044589036886464
98746.580520032628556
98746.118051821147674
98745.650190257845679
98745.143911862411187
98744.637854836662882
98744.180651267175563
98743.739384595493902
98743.261572775154491
98742.775202852950315
98742.324667480221251
98741.888697183414479
98741.422418652815395
98740.916302848869236
98740.385525607402087
98739.845919943865738
98739.318492254024022
98738.8164803199179
98738.333535147743532
98737.859242490827455
98737.390384793427074
98736.925924578856211
98736.470800809576758
98736.029180095545598
98735.593972051428864
98735.144967572530732
98734.668931537235039
98734.176939448356279
98733.698078858607914
98733.255006019564462
98732.848097296155174
98732.462512151469127
98732.085265319561586
98731.711923041788395
98731.339797128137434
98730.965328322839923
98730.586595911416225
98730.207806487000198
98729.834379620049731
98729.466273022146197
98729.103965663467534
98728.755812599760247
98728.42743221623823
98728.111080381888314
98727.792418545490364
98727.459747293018154
98727.114903065463295
98726.770947374563548
98726.444622326773242
98726.137886387179606
98725.836957252438879
98725.527272984749288
98725.212027147703338
98724.906517358278506
98724.621049206558382
98724.348503549932502
98724.073147423419869
98723.787042666066554
98723.496860244515119
98723.215357069086167
98722.950539766374277
98722.700738345229183
98722.458868712710682
98722.216472523155971
98721.96832458175777
98721.713591734616784
98721.457991694813245
98721.206136040796991
98720.958840021979995
98720.712408780527767
98720.463659258908592
98720.211474736162927
98719.957587202457944
98719.704809084156295
98719.457924626418389
98719.219516546087107
98718.989660732229822
98718.767803886192269
98718.553301103893318
98718.343220920825843
98718.131572123864316
98717.913561946508707
98717.690988592294161
98717.471556466553011
98717.259537984631606
98717.050595949112903
98716.836967153358273
98716.618731421622215
98716.406238196781487
98716.211502943813684
98716.036612815907574
98715.868992481933674
98715.68936533757369
98715.487846884032479
98715.270143431305769
98715.051031019233051
98714.84293613115733
98714.648876093648141
98714.463304772856645
98714.276833856492885
98714.080972231793567
98713.87175315147033
98713.651995501160854
98713.431010277257883
98713.219114055827959
98713.020710302065709
98712.832474169510533
98712.647161029672134
98712.459391339711146
98712.269573224228225
98712.081740637135226
98711.899063266420853
98711.721298782387748
98711.545730730736977
98711.369020773010561
98711.187719630004722
98710.998398768351763
98710.800072592246579
98710.595414038863964
98710.390018715159385
98710.189685842778999
98709.998181326853228
98709.816508469593828
98709.643914001600933
98709.478346779505955
98709.316057191463187
98709.151266321990988
98708.978464614963741
98708.795221475418657
98708.602601964797941
98708.403580665966729
98708.204559598118067
98708.011691278967191
98707.830080696818186
98707.663053392665461
98707.510239576178719
98707.367928193998523
98707.231384276790777
98707.096890305707348
98706.963098621257814
98706.83049564799876
98706.699580752159818
98706.569290435290895
98706.437013577422476
98706.300132587464759
98706.157995881440002
98706.012840928553487
98705.869389559476986
98705.73210884819855
98705.603219295851886
98705.483145263977349
98705.370979226470808
98705.265846270835027
98705.168166832096176
98705.079152457779855
98704.999916492844932
98704.930837431282271
98704.869872099458007
98704.812467664422002
98704.753173499761033
98704.687820618390106
98704.615191426069941
98704.53700883401325
98704.456114928456373
98704.375414831811213
98704.297430603008252
98704.223741138572223
98704.155146547331242
98704.091065357293701
98704.030417071568081
98703.972416220392915
98703.917010363176814
98703.8646760412812
98703.815011919476092
98703.765483108116314
98703.710928347238223
98703.645265603641747
98699.39089437254006
98699.267070837449864
98699.146844867544132
98699.032402269731392
98698.925552770888316
98698.827476843085606
98698.738352713480708
98698.65722383998218
98698.582053496007575
98698.51044511301734
98698.440738047444029
98698.372745893939282
98698.307670101014082
98698.247357055559405
98698.19309167675965
98698.144686869898578
98698.100538570652134
98698.058354374399642
98698.016304977121763
98697.973929264844628
98697.932219226961024
98697.892847854134743
98697.857374070285005
98697.826876225197338
98697.801982152668643
98697.782965611622785
98697.769841991364956
98697.762113962176954
98697.758589464181568
98697.757737915657344
98697.758305345952976
98697.759860003832728
98697.762578237845446
98697.766553608977119
98697.771247687196592
98697.775279111723648
98697.77687140845228
98697.775040363820153
98697.770572433961206
98697.766018567432184
98697.764563549964805
98697.768509580142563
98697.778331033550785
98697.792519221547991
98697.808287578678573
98697.822868059884058
98697.834738531528274
98697.844171566321165
98697.853043640381657
98697.863981005299138
98697.879512273706496
98697.901417381392093
98697.930350098817144
98697.965879518320435
98698.006894065591041
98698.052045155956876
98698.100141273156623
98698.150338923500385
98698.202115329331718
98698.255244146217592
98698.309751619526651
98698.365893709808006
98698.424058699354646
98698.484623465046752
98698.547800136759179
98698.613486483431188
98698.680848498115665
98698.748118962525041
98698.812600978737464
98698.871366129213129
98698.922311598813394
98698.965065589029109
98699.001254490765859
98699.033988331604633
98699.066735488304403
98699.102344382510637
98699.142467704616138
98699.187491995689925
98699.237163946934743
98699.29130916352733
98699.350213700599852
98699.414341929310467
98699.48369249071402
98699.557210848026443
98699.632619623633218
98699.706905638377066
98699.777141273691086
98699.841439659561729
98699.899574230410508
98699.953011789984885
98700.004359109530924
98700.056286475781235
98700.110491765037295
98700.166993761755293
98700.224033715407131
98700.278534105280414
98700.326860472370754
98700.365795948804589
98700.393271898035891
98700.408555010362761
98700.412054009939311
98700.404874399944674
98700.388287839450641
98700.363411844649818
98700.331242391082924
98700.29279176525597
98700.249199255151325
98700.201748248262447
98700.151799934494193
98700.10053676951793
98700.048787946245284
98699.996919227822218
98699.945038172052591
98699.893289290004759
98699.842008203442674
98699.791719654895132
98699.742968345948611
98699.696061728333007
98699.650846835807897
98699.606769633304793
98699.563219992342056
98699.519839847052936
98699.476881025882903
98699.435362805554178
98699.396797893190524
98699.362790877799853
98699.33459736884106
98699.312821983941831
98699.297338242526166
98699.287443485518452
98699.2821761485975
98699.280690210085595
98699.282551621872699
98699.287776007869979
98699.296614320803201
98699.30935252411291
98699.326131282039569
98699.346756562837982
98699.370636395964539
98699.396862609341042
98699.424358363219653
98699.451974631185294
98699.478554578861804
98699.50298048305558
98699.524172755118343
98699.54115429216472
98699.55320426041726
98699.560065713987569
98699.562157288441085
98699.560566930478672
98699.556895049812738
98699.552917128487024
98699.550236244758707
98699.549914176561288
98699.552286130652647
98699.557041267151362
98699.563445988795138
98699.57070861045213
98699.57831738650566
98699.586129041956156
98699.594230942282593
98699.602708807287854
98699.611425239869277
98699.619943619080004
98699.627717509370996
98699.634412869680091
98699.640217507781927
98699.645877729097265
98699.652539274189621
98699.66139142755128
98699.673182937389356
98699.687925067570177
98699.704854214753141
98699.722717391879996
98699.740255379234441
98699.756714195013046
98699.772248010136536
98699.787971431651386
98699.805672459042398
98699.827325676757027
98699.854433099433663
98699.887626877200091
98699.92651751129597
98699.969982083479408
98700.016652967766277
98700.065202188197873
98700.114712948619854
98700.164749817588017
98700.215239787503378
98700.266307679994497
98700.317913169710664
98700.369606422813376
98700.420587140775751
98700.469804753432982
98700.516235480099567
98700.559287479874911
98700.598998371802736
98700.636171200210811
98700.672231995064067
98700.70893733324192
98700.747980575572001
98700.790705414925469
98700.837976783397608
98700.890118684037589
98700.946919085472473
98701.007635374829988
98701.071204787309398
98701.136562879270059
98701.202912074120832
98701.269848936091876
98701.337473882827908
98701.406367457922897
98701.477399414987303
98701.55144260932866
98701.629127457403229
98701.710688642924652
98701.795837652724003
98701.883751688088523
98701.973196571590961
98702.062843168445397
98702.151720611509518
98702.239632587472443
98702.327224015651154
98702.415958483339637
98702.507892832421931
98702.605356477288296
98702.710555451718392
98702.8252235409891
98702.950410965175251
98703.086519472228247
98703.233571302203927
98703.391526449660887
98703.560575863491977
98703.741305402538273
98703.934691899703466
98704.14200790146424
98704.364532073770533
98704.603215782073676
98704.858491072009201
98705.130310510023264
98705.418285892606946
98705.721890588538372
98706.040675643162103
98706.374420289692353
98706.723211805685423
98707.087461341667222
98707.467827249638503
98707.865154282859294
98708.280436209723121
98708.714768045945675
98709.169290066609392
98709.645127445081016
98710.143388532305835
98710.665182735217968
98711.211591811486869
98711.783587027719477
98750.302699515683344
98751.089128563427948
98750.690397042926634
98750.409453415297321
98750.240836709359428
98749.99504166348197
98749.700014996851678
98749.437388020305661