/*--------------------------------*- C++ -*----------------------------------*\
  =========                 |
  \\      /  F ield         | OpenFOAM: The Open Source CFD Toolbox
   \\    /   O peration     | Website:  https://openfoam.org
    \\  /    A nd           | Version:  12
     \\/     M anipulation  |
\*---------------------------------------------------------------------------*/
FoamFile
{
    format      ascii;
    class       volScalarField;
    location    "0.00519";
    object      k;
}
// * * * * * * * * * * * * * * * * * * * * * * * * * * * * * * * * * * * * * //

dimensions      [0 2 -2 0 0 0 0];

internalField   nonuniform List<scalar> 
106891
(
0.012510319525845867497
0.012503345068895634767
0.012490709191703423114
0.012483813197071371229
0.012470578255747556337
0.012463493588431557788
0.01245042751186497057
0.012443581881168700939
0.012430839119255524677
0.012424279857215041883
0.012408463688316421006
0.018103326857042065234
0.018100201723424691469
0.018092743206311583809
0.018072463932549149429
0.018027152765861313016
0.017980976722463643674
0.017934910337293427651
0.017893930825625275344
0.017855186821712800554
0.017822149206587555026
0.01779126916330137434
0.01776631049243508273
0.017742985274875444635
0.017724506103949277253
0.017706041906156554794
0.017690430133266200202
0.017673941108587266219
0.017659989719054653562
0.017645403821397193794
0.017632774422690889599
0.017618472622852401205
0.017605233786465345619
0.017588998054119005937
0.017573481276448102428
0.017556471301583324862
0.017541709816009911499
0.017525325227754483259
0.017511102396751306032
0.017495811913235934792
0.017482685410816985877
0.017467752003483247997
0.017453900913002071138
0.017437072182658986536
0.017421606476049771722
0.017403636581473088535
0.017387248942264069834
0.017369458298896165577
0.017353612173106200411
0.013243499654299212623
0.013230300636339200476
0.013222888841383869177
0.013209557692713742513
0.013202013824965897967
0.013188401900835091188
0.01318059580498166794
0.013167029434818254552
0.013159248885971730134
0.013145634159977938674
0.013137909463008384803
0.013123742752173947132
0.013116040941201346712
0.013101257703925573914
0.013093247627438037856
0.013078729629213695779
0.01307100659443038819
0.013056593876714912492
0.013049058819300912368
0.013031077357220260601
0.019080039289211651182
0.019068210322912192145
0.019033337281037801536
0.018981262872966062766
0.018929158035063259335
0.018882095238191495823
0.018836572846918930163
0.018796803356995035045
0.018759647957619404735
0.018729162578025038144
0.018700839723143975607
0.018678228578862015458
0.01865641610346964463
0.018638128459472935727
0.018619078445871746486
0.018602626760381633236
0.018585710317629830501
0.018571392906330110723
0.018556183433374673353
0.018542883775574135752
0.018526531988244099997
0.018510440547293508656
0.018491743244334307716
0.01847520114278936379
0.018456881892808234963
0.018440936833676011691
0.01842374059216595264
0.018409307329321489971
0.018393897773330929873
0.018380769144827620309
0.018365016161930054067
0.018350766298071925775
0.018333400504684571608
0.018316874915861661166
0.018297955015105431958
0.018280749623700843359
0.013922410211791616877
0.013907798568758001495
0.013899505319273808279
0.013884624805092065855
0.013876168463237394113
0.013861053545600621889
0.01385236831074168444
0.013837252496286650202
0.013828705667414984554
0.013813615237503188565
0.013805045150687244096
0.013789329560984088519
0.013780851217956665081
0.013764622508673251752
0.013755841788556322225
0.01373979122474196235
0.013731236262085711602
0.013715187716271871887
0.013706728347825831993
0.013686522676216219749
0.020138410487385308145
0.020134893509357178892
0.020121641176963418751
0.020078448106053897043
0.020013021674678624362
0.019953292128921266968
0.019895977381363068315
0.019845362937070100406
0.019798670691709402414
0.019760352929534808625
0.019725399094998631588
0.019697352794782116425
0.019670569765504537091
0.019647946255803964283
0.019624658528172123778
0.019604379838030646516
0.019584035100861842821
0.019566884621780959719
0.019549097441715276857
0.019533428868522290794
0.019514831748751747947
0.019496833744646006187
0.019476280235672136648
0.019457665732139663856
0.019437250885346844115
0.019419220759473748705
0.019400086996802842071
0.019383765795606404392
0.019366659947957002436
0.019352233116817468828
0.019335661577104146236
0.01932091844534968017
0.01930286083155133281
0.019285105436254005445
0.019264146330761837411
0.019244604494161363095
0.014619664683814760989
0.014610489886855952332
0.014594027769115792623
0.014584674336368621053
0.014568063292725766389
0.01455857118241685004
0.014542062046414313062
0.01453255997311216248
0.014515834363939633667
0.014506474158875026087
0.01448926154441983194
0.014480073367012206639
0.014462332075562073577
0.014452891028832787548
0.014435341184146494031
0.014426094801558077274
0.014408315739790206189
0.014398964425503224876
0.014376456410330236066
0.021293877666551785238
0.021232103852531113847
0.021155913597292439615
0.021085613482172218397
0.021017683776886599001
0.020956428300341275323
0.020898752343903870266
0.020849832170830355504
0.020805447175444299196
0.020769826443246500181
0.02073708520631618521
0.020709890111106632471
0.020682769165234510256
0.020658991591184394654
0.020635066452097856199
0.020614499039908140698
0.020593844658990192314
0.020576516974365969409
0.020557463175033787589
0.020540213387893493241
0.020520282774933881753
0.020501860028482480486
0.020480785215681286682
0.020461803846430492299
0.020441172511868811734
0.020422894765916101839
0.020403299828943372018
0.020386865170941095154
0.02036901465999589253
0.020354028705131615995
0.020336182819663706223
0.020318863018556676536
0.020297623294823419898
0.020276568262189424707
0.015384744739150503501
0.015367059009042652665
0.015357061881638559009
0.015339082483977355131
0.015328841790299078951
0.015310868178837725925
0.015300628835798864291
0.015282690516708089326
0.015272393969598124439
0.015254220051855884796
0.01524392169408213607
0.015225065754690228145
0.015215183699468658521
0.015195918060775769065
0.015185978595601938579
0.015166735126874957354
0.015156840421277144662
0.015137263665866793755
0.015127108879561302485
0.015102323774893016903
0.022395325222244175101
0.02236753098555546368
0.022299446113099866823
0.02222496497673347518
0.022156188125835502012
0.022089915089730096515
0.022031762520864441729
0.021977831401580036341
0.021933524929820317345
0.021893110184841791527
0.021859425055584601194
0.021826607529458971063
0.021797686354315160689
0.021768557640067076608
0.021742891855750859365
0.021717336698068589323
0.021695769213366765393
0.021673004244749861924
0.021653415826765363278
0.021632312088321233035
0.021613984806946956452
0.021592923468937961357
0.021573486513030253053
0.02155157617656227112
0.021531687771940935527
0.021509827680214914369
0.021490941033009022115
0.02147034286617945098
0.021453108524668820789
0.021433572896194987706
0.021415630698545677635
0.021394170026683288072
0.021372822671401274508
0.016152428116291441679
0.016141570726832126653
0.016122030653585403548
0.016110919041788681477
0.016091389103373068131
0.016080307646845350134
0.016060860104385673436
0.016049751401070792151
0.016029970889272035506
0.016018853282055694337
0.015998465763641830234
0.015987917705300534049
0.015966993321135134615
0.015956565354384041888
0.015935716359571173995
0.015925257029558236022
0.015903983693536249272
0.015893077154512321586
0.015866123587155427782
0.023509488758296243766
0.023459698570003104795
0.023385890343873713682
0.02331647328920725612
0.023249351626993788184
0.023190918411447582204
0.02313693499110659052
0.023092735001870576261
0.023052016006711983226
0.023017851830011072656
0.022983875651329314233
0.022953592544462046721
0.022923049678304930482
0.022896192453099976916
0.02286933880948585629
0.022846230064189104042
0.022821876048793762054
0.022801128157830974352
0.022779313970879476459
0.022760463718137374095
0.022738918848043101345
0.022718552929305545207
0.022695265469264504915
0.022673625585780794733
0.022649845974172556906
0.022628874266158643946
0.022605990266179164933
0.022586204177530530557
0.022563777056147753253
0.022542920584517595062
0.022518631196477026379
0.02249514835955662706
0.016978675358817290481
0.016966880880182139135
0.016945674883688501694
0.016933612986243205822
0.016912108090714073755
0.016899915187645716402
0.016878592619497638505
0.016866552234560391876
0.016845190877969803966
0.01683344668739944483
0.0168115470776148343
0.016800162534960430549
0.016777638708908724358
0.016766510213986497019
0.016744252796036349085
0.016733305432126595325
0.016710802084655983907
0.01669930634591713578
0.016671690337613846028
0.024796947262917978794
0.024719198498323557284
0.024635162859710110772
0.024559400923566725161
0.024488847789634973079
0.024429914922788755621
0.024376308841516178966
0.024331490373148377537
0.024288990019836250583
0.024251981152930625341
0.024215232198291889582
0.024182229632488169008
0.024149303390751043069
0.024120870502827851389
0.024091597151816367822
0.024066438461554786471
0.02404023286307445037
0.024017968057061193227
0.023993821806147945519
0.023971458149820892847
0.023945606693501420709
0.023920522629568143763
0.023892148666438066396
0.023866664668656813186
0.02383945354351487203
0.023815889328723430229
0.023789740902379383214
0.02376574553400277387
0.023738873469840104935
0.023714129054597320179
0.017837962569024652659
0.017814975089253837215
0.017801606194087236934
0.017777729368807827087
0.017764045233525215667
0.017740499903897165301
0.017727344999340054199
0.017704233271148301504
0.017691828360183670804
0.017668463456790413357
0.017656402489250627719
0.017632683424367637942
0.017621050109023699004
0.017597677535414701228
0.017586260098533576524
0.017562601207376841994
0.017550633626733255083
0.017522597947414890462
0.026026445958512424428
0.025948532212159571009
0.025873615974555223829
0.02580947654264402133
0.025750035178230837318
0.025700256304512177075
0.025653528084912207569
0.025613627488739337118
0.02557444131589380748
0.025539764510470391173
0.025504724863574513433
0.025473863172478974914
0.025441105392862633366
0.025412982191513430741
0.025383814514502261311
0.025359322479697424257
0.025332832440270725699
0.025308911482775559021
0.02528183324110576044
0.025255798991442084123
0.025224731786425966251
0.025195523938551806636
0.025163948563895685573
0.025136807183865843285
0.025107622932186931392
0.02508103756269804141
0.025051465885928027311
0.025024386979860639701
0.018788087796028814236
0.018764226768843907112
0.018750093264637685692
0.018725001716726502599
0.018710110587928926312
0.018685123429565901609
0.018670950132455312737
0.018646868565477456997
0.018634253437045913276
0.018610630517118836869
0.018598796183828161799
0.018575353266929821305
0.018563848512268530527
0.018540352467499743305
0.018528725368585730743
0.018504502591215363921
0.018492400394727999402
0.018465595227700727643
0.027192502375700387807
0.0271241128878429473
0.02706445324533654842
0.027007865791551094459
0.02695930098320040158
0.026913657577903926654
0.026875316188462790301
0.026839014775438162913
0.026807729617776020203
0.02677633953203076983
0.026747846281279720471
0.026717232028548403705
0.026690511759173422141
0.026663057282615969246
0.026639377697675402368
0.026613638901619034866
0.026589449976436242001
0.026562290355427443239
0.026536297836223698282
0.026506700116004432849
0.026479289719402866743
0.026449684018801759844
0.026423352012188476567
0.02639452270648629667
0.026368395822383594584
0.026339690026368829667
0.026313937987508143751
0.019658818862305235675
0.01963257856592035
0.019610153917047894179
0.01958314149134483817
0.019560444464018542088
0.019533882348537312534
0.019511873371377073949
0.019487116200329012566
0.019465898639764604716
0.019442547093654196505
0.01942178178983964415
0.019398345295444315711
0.01937692937462749676
0.019352651067810016511
0.019330178916356407365
0.0193048253584262898
0.019281855833034496073
0.027572703539976210069
0.027503337175315833996
0.027441025001955967472
0.027381498849488348363
0.02732960462848010863
0.027279929464383179116
0.027237884636890637852
0.027199138447273618624
0.027168243874732919685
0.027139252705076319372
0.027114904558199277168
0.027088526279647202888
0.027065155292385970065
0.027039432151856036823
0.027017616537241398444
0.026994253571183870338
0.026973328237858629902
0.026949532781261605757
0.026927272775256225895
0.026901290223769112192
0.026877684800942325261
0.026851884475047712447
0.026828492427052250124
0.026802173609011908928
0.026778568950096750395
0.026752312125791943148
0.026728980409909813831
0.019775698288274190517
0.019753812441358792329
0.019714193000017549845
0.019692276346472421811
0.019652764133959842868
0.019631592596470241047
0.019593007585929349268
0.019573319038434254524
0.019535646190122445826
0.019516381005947418953
0.019478028075679401643
0.019458151596057519234
0.019418159480710194681
0.019397861612876331899
0.019346813098010055831
0.019353755886096678934
0.022339333836151439167
0.022289048814942834242
0.022240747876447187342
0.02219827426160254219
0.022158950327749827452
0.02212666242382708634
0.022096684529562149457
0.022073059028691565525
0.022050793826454553187
0.022034924455573486057
0.022019609767923352395
0.022008071107122963855
0.02199407540098484784
0.021983020980869190375
0.021970204993649537772
0.021960244990976911933
0.021948701525288546316
0.021938418549227279436
0.021925162933669226778
0.021913507141948097845
0.021899217515482374136
0.021886986551582804372
0.021873209235785652516
0.021860491751800676524
0.021845572766127210884
0.02183295129648947161
0.02181878504191143639
0.021806503304324365705
0.015748746552080888916
0.015716800026948092583
0.015699648575336070527
0.015667950136447363757
0.015651183452538429408
0.015619430813051159504
0.015602982370218164768
0.015571404899902297272
0.015554709592563416634
0.015522471785833685809
0.015505470859718298651
0.015472336434110089617
0.015455555671498756934
0.015414032273336845599
0.015428218268057869791
0.02077584712072698403
0.020717100333099206649
0.020666254057011484296
0.020619709652568211228
0.020580939342922766055
0.020544734339630589537
0.020514854547537656609
0.020486354436495303466
0.02046346911016557607
0.02044175382206715047
0.020424219934768877288
0.02040501659112297847
0.020388318559638608785
0.020369684250147273435
0.020353998749208339347
0.020337206171562385859
0.020322404381844339644
0.020305246825511279879
0.020289398219028375453
0.020270508513861588279
0.020253421302881678689
0.020234795110824412012
0.020218190837328467446
0.020199948337164909395
0.020184192947992864869
0.020166515702863704179
0.020150315920533300867
0.014813755338085855817
0.014799883630913460153
0.014774112533917685072
0.014760533565883932755
0.014734486346963672834
0.014720666691748344676
0.014694399838639205305
0.014680249252693379491
0.014653439319860314324
0.014639273752954540253
0.014611939938766022387
0.014598064459119515848
0.014565043469658549638
0.014562515966027908543
0.019954011601491034728
0.019906161636110666219
0.019862212380269486656
0.019825507773860433225
0.019790908867416030781
0.019761715090634228431
0.019733064854926908593
0.019709157161114213702
0.019686371750398265479
0.019668037764614568902
0.019648712628187146867
0.019631974269815156281
0.019613310528013194051
0.019597474417752655529
0.019580870770795379132
0.019566648681497982032
0.019550217206176202789
0.019534558802829865565
0.019515245936563323931
0.019497334987073237228
0.019477932456921951548
0.019460889524903331183
0.019442459303953975314
0.019426618676499297217
0.019408671411488106345
0.019392038678255896222
0.014267736376733850326
0.014243362690591575975
0.01423048984350679981
0.014205810987598448472
0.014192351118528826262
0.014166862572246721047
0.01415273297661086456
0.014126715320769074255
0.014112767713581114357
0.014086798791586861365
0.014073708890681359274
0.014043806332594110931
0.01403939488693742299
0.019160886695383735207
0.019119316144655739559
0.01908474135928527049
0.019051771163323821812
0.019023568638300330375
0.018995516620784642925
0.018971717722057277605
0.018948597648894009021
0.018929700428743975044
0.018910255909744256436
0.018893746549988866407
0.018875697298439620547
0.018860413539709439817
0.018844436442870985543
0.018830877051037083619
0.01881508332596096289
0.01879956054312580116
0.018779951715223831138
0.018761307703011549652
0.018741323551935289843
0.018723864377720438046
0.018705577901064730784
0.018690051380970320455
0.018672871372384755584
0.018656818615995770377
0.013704674450005257039
0.013691821861220717857
0.013667918877751265155
0.013654583243303897513
0.013629707216701234668
0.013615523709596850932
0.013589993622857036645
0.013576212738347605974
0.01355115107204109097
0.013538629820689929151
0.013510029314583317517
0.013506017635521295681
0.018417256221398517479
0.018382608439412723156
0.018349967349034882608
0.018322125211678211287
0.018294479341903806258
0.018270802784756085685
0.018247424660059984036
0.0182280064289470356
0.018208285999923239096
0.01819173395649829536
0.018173979723822290128
0.018158945750057182283
0.018143195310858794417
0.018129919007147398541
0.018114547583228855776
0.018099410787141015367
0.018080074554498049705
0.018061481327251143608
0.018041682050842593882
0.018024649965598688039
0.018007045723287339045
0.017992198214079779123
0.017975716747238700693
0.017960585459861257845
0.017686288539141212239
0.01765655424242443261
0.017631711594943113436
0.017606863449499878665
0.017585341699388912229
0.017563462546923903906
0.01754487038420513359
0.017525746206355708595
0.017509728767986787457
0.017492776023759863679
0.017478384270474572881
0.017463029823585440869
0.017450022135805105805
0.017435234174007521041
0.017421165142988866148
0.017403369252553868574
0.017386229126690740804
0.017367612701854676094
0.017351341501583794624
0.017334421174697099699
0.017320194229576889311
0.017304495279515847567
0.017290008975897608323
0.016983131033429091361
0.016957141914197400301
0.016934468961231834844
0.016911292874872418945
0.016891592009379799433
0.016871793197822910343
0.016855174031650137917
0.016837737645739214026
0.016822756679985877842
0.016806914849554408647
0.016793574675366650106
0.016778882731177554438
0.016765510913220552092
0.016749182491803907974
0.016733714420498285724
0.016716483705300204388
0.016700919472411784872
0.016684391756871898294
0.016670473464666005214
0.01665525396739373637
0.016641118771477451249
0.016249106701662671681
0.016230847384762575603
0.016215224201113404012
0.016198416853921045189
0.016183548766685772885
0.016167573634358969187
0.016154077392459161716
0.016139645630810859483
0.016127047113377195042
0.016112056428952779147
0.016097992341371953479
0.016082013108120286199
0.016067307909813952765
0.016051447179100369889
0.016037881873855179549
0.0160228988138986575
0.016008885679630494719
0.015589262358240015341
0.015572438506469218206
0.015557957068433232034
0.015542770492909046068
0.015529821184340640919
0.015515062895317500297
0.015501417513409856269
0.015485839134611255677
0.015471319507448535319
0.015455591670940535196
0.015441887979094627917
0.015426573290443635136
0.015412004959834869552
0.014994015717660381937
0.014979725454831536308
0.014964724251884197956
0.014951747467458356353
0.014937174027690500178
0.014923936547996195789
0.014909071859868660084
0.014895215222407580044
0.014880018787481011019
0.014866447804136120187
0.014851067408088195962
0.01483620160732310525
0.0088352488152510493674
0.0086682674805372630922
0.0085544570126939774996
0.0084899499780409226624
0.0084619573789510710293
0.0084570374260761766588
0.0084624797488263760886
0.0084977757976257770056
0.0086253444971536932795
0.0087805149203961461307
0.0088898993710377644667
0.0089525821818520218837
0.0089768667750415604561
0.0089796384836585575046
0.0089736778954044617296
0.0089406715699727086488
0.0088673109041955029686
0.0088190019389897920943
0.008799205018870983816
0.0087965514575763670974
0.016158486745439615967
0.016089356449211677375
0.016058755328825950054
0.016048291529926522053
0.016048326205300000868
0.016054071186393476661
0.016063728338310420685
0.01608101352417521876
0.016107615989140577212
0.016142051369215620893
0.016171656690759258351
0.016183573272709628893
0.016182589809794201141
0.016172810429677626082
0.016137970529189256397
0.016019274632534018232
0.015696739807661525684
0.015364145100160875312
0.015115661480681073792
0.014954493678850055288
0.014868194377184564339
0.014833345660845348446
0.044946755721922859728
0.04430584996395951769
0.043808228974117610632
0.043461619766866965708
0.04322508312660272578
0.043061286285141109342
0.042952332219310190853
0.042868158001733359941
0.042804949162290134579
0.042758337177753881486
0.042735071037265218163
0.042740063639029816922
0.042739774550838487144
0.042722831398780483636
0.04267659300023423502
0.042573061245729557078
0.042306827077066053167
0.041565517983699833138
0.040625404622727664949
0.039833616931194339161
0.039225121579435917596
0.038810314104996211648
0.038565212259476532031
0.038438952876516566115
0.038379068739218896722
0.038344964332660207151
0.21256860103016553265
0.21149330550656789129
0.21081933316414872004
0.21046692553836957029
0.21032877946647288159
0.2102856986721255983
0.21028936789643615235
0.2102883891054775356
0.21024128285786061743
0.21015000961667082424
0.21003642922512424929
0.2098847453029624166
0.20967422240356620167
0.2093497090230480584
0.20879882067916735733
0.20755738662694608876
0.20565285133598562584
0.20360230270281065579
0.20162626835580771401
0.19990424730713862722
0.19852098511028157257
0.19753673776525165762
0.19693456868772263313
0.19662207705977025052
0.19646979495065652888
0.19636369908403911166
0.19623506561801182246
0.19600394579936156192
1.2536817424532678
1.2503143010473249941
1.247860837075850382
1.2461998229726196641
1.2451536631431217028
1.2444683809571293054
1.243900526862456557
1.2432163180925785984
1.2424903631370405321
1.2417765172026136167
1.2410480250933866309
1.2402810871355631761
1.2394108309538065527
1.2380442884095346212
1.2349144296112712915
1.230163188297683341
1.2245152012584330503
1.2185928893343511703
1.213068777472367854
1.2083046651573465802
1.2045093080029130039
1.2018435905227755622
1.1999681902883478912
1.1987174693462712138
1.1975940281302348556
1.1965075220961149949
1.1951763215944026797
1.1937457401551836433
1.1920598442117829041
1.1903994451527499798
3.7895764465329069282
3.7817013815431645973
3.7737756016899002276
3.7657373920926620059
3.757561142998678605
3.7492365402068736913
3.7407278388998834728
3.7320638402110759557
3.7233313562166538979
3.7146875762783575503
3.7061312069513010492
3.6976061704863609769
3.6890341207971322213
3.6804190912257528367
3.6718666203357943623
3.6636050899569867489
3.6558597655243536551
3.6487604093067780298
3.6422265500556871842
3.6361186748283427228
3.630229384351089994
3.624430011211603464
3.6185381734644042062
3.612453006746039641
3.6060407061339674328
3.5992505114099557773
3.5919631735242698589
3.5843358620831109462
3.5765311879708234777
3.5689134444421992676
3.5616911805669739799
3.5548257740751467715
6.4345591720733121832
6.420332374971335021
6.4060835053705025288
6.391905367358281076
6.377734748407623222
6.3635262862201358303
6.3494655020534933598
6.3359438430332239989
6.3233425320392893099
6.3117784978161903808
6.3008827100583069125
6.2900560015808864023
6.2788078101267634779
6.2670416079389417163
6.2550620618441392651
6.2433072379105194472
6.2320562153419309936
6.2212281548424090971
6.210475633584959354
6.1995175559141815214
6.1883034733951838291
6.1769820885051025527
6.1657512382433026232
6.1547120720885954981
6.1437466841558245889
6.1326550665224894843
6.1212824338615883235
6.1097540055910792844
6.0983121090019842825
6.0873148761905389037
6.0766926254985786926
6.0663115022792677422
6.0555367689914332274
10.304577684252866021
10.213831695899157737
10.125820776810625645
10.041959655185660694
9.9632511951923294902
9.8891980453227255055
8.2856313380159871684
8.268874884761293842
8.2521940588457471932
8.2355870982913828016
8.2188230850802383998
8.2017976895230564338
8.1848452013878869593
8.1686254570396776842
8.1537017465785766035
8.140225864612927964
8.1276236001391364283
8.11487220778279017
8.101256657207827061
8.0867741195870213033
8.0720874839802849721
8.0580023106339879746
8.0448663167042298028
8.0323603078365675145
8.0197912690438641903
8.0066260662452624075
7.9928795369528851111
7.9790475074313240711
7.9656136700876185586
7.9526687889994791547
7.9398356992470873195
7.926565861328992213
7.912628529918880993
7.8983303963879212262
7.8843433214219063032
7.8711483322787136885
7.8587435066521589277
7.8464171403312885644
7.8337582507061149784
7.8201906540828050041
9.5209924912055754476
9.4280084083946587015
9.33319461043095977
9.2404523600648342807
9.1526638692419712839
9.0709425903043605643
8.9951385179698544192
7.6690657214783017892
7.6466671474980314471
7.6257729321987959281
7.6066711278327465706
7.5897895449686894054
7.5759449090434145546
7.5659697937490939523
7.560002693403716556
7.5570071808069032571
7.5547693179981996181
7.5509666227354346191
7.5442710416329399337
7.5351578154210612226
7.5254276821699903621
7.5168922568876066492
7.5101233065744645856
7.504212573885619797
7.497679577740217205
7.4896091713440196003
7.4803243219524944152
7.4708941914465984979
7.4621065731394136122
7.4538921224715419811
7.4454480160707010583
7.4360836315202689661
7.4258256854093325217
7.4156140320962133927
7.4066058765574158684
7.3993748971585544538
7.3932794047054031239
7.3868789962119256742
7.3788569386732172362
7.3689995462296193907
7.3581917572439605735
7.3475503974583382671
8.8701844355901837356e-07
8.8834395401200004373e-07
8.8979870709249674732e-07
8.9270161389720394729e-07
8.9436080291033263954e-07
8.98403807837115029e-07
9.0040751461468993938e-07
9.047263697864584841e-07
9.0653939408265028739e-07
9.1021538681438395518e-07
9.1250698821124291243e-07
3.6764569185820291102e-05
3.1747571196453077964e-05
2.7189036171160020704e-05
2.311913346523025153e-05
1.954349601385782414e-05
1.644622029088480542e-05
1.3796868982336269878e-05
1.1556991965228177149e-05
9.6843413944945687632e-06
8.1358111428545063903e-06
6.8686075177969900616e-06
5.8413711191160829446e-06
5.0162873226932669347e-06
4.360755164249993536e-06
3.8458136136203294775e-06
3.4452504245500094286e-06
3.1352380144480885859e-06
2.8963625953619611795e-06
2.7110148029629748995e-06
2.5647414734346068597e-06
2.4457565393585138384e-06
2.3478406830709789007e-06
2.2663444799650359644e-06
2.1992033969737102017e-06
2.1435594176267761787e-06
2.0991953695340371074e-06
2.0628861692660791921e-06
2.0323364207803405206e-06
2.0035256740566348715e-06
1.9768606911299648179e-06
1.9532219674935101457e-06
1.9357510170509573325e-06
1.9228726354030150886e-06
1.911491260407831002e-06
1.8947998625753888215e-06
1.8714286310674540842e-06
9.2453654678097688082e-07
9.2507012675928847827e-07
9.256017726124296485e-07
9.2604185948077295565e-07
9.2650643248706298003e-07
9.2702564742492873783e-07
9.2761333717365373278e-07
9.2824667821534201698e-07
9.2887612327858226258e-07
9.293432362575461594e-07
9.2988105455526617292e-07
9.3060873616269984926e-07
9.3130734071284400766e-07
9.3286927804005305435e-07
9.3381431111413111496e-07
9.3616453215069045871e-07
9.3727513486963815551e-07
9.3991296885688735187e-07
9.4113862523424040751e-07
9.4321694226199414243e-07
9.4524552409033176223e-07
3.9187646963467786696e-05
3.3687872251603998052e-05
2.8732073600416368895e-05
2.4334221082022386992e-05
2.0490838850920616048e-05
1.7182791272920428926e-05
1.437458456381060756e-05
1.2016428107665392923e-05
1.005229662580437999e-05
8.4293850700697112096e-06
7.1015805302842576973e-06
6.0273989213279397016e-06
5.168953448410047472e-06
4.4940160276827749328e-06
3.9725338698517200203e-06
3.5754540797649434682e-06
3.2737474442070320463e-06
3.0429139612657975065e-06
2.8635527293384086565e-06
2.7226638590954390919e-06
2.6104071186931586271e-06
2.5200346130101056313e-06
2.4440576425586977494e-06
2.3779921100862405586e-06
2.3182077948729333046e-06
2.2659649883573750966e-06
2.2205580439111532567e-06
2.181948564695321517e-06
2.1469064905911017023e-06
2.1148313194297530306e-06
2.0853049629236167613e-06
2.0606779197976069554e-06
2.0391979367844084394e-06
2.0187889695230836672e-06
1.9940672721540828819e-06
1.9652376767642936317e-06
9.7667675476239748029e-07
9.772240241029507639e-07
9.7794596613304311762e-07
9.7842250533442219008e-07
9.7868147980860972394e-07
9.7874669419649493903e-07
9.7840710991928917808e-07
9.7760074681341052887e-07
9.7685148520762323618e-07
9.7617121384676162373e-07
9.7572282223588260631e-07
9.7554251342817575979e-07
9.7573869692997717503e-07
9.7652340939148315998e-07
9.7682365492765899736e-07
9.7777816454960004926e-07
9.7808535716622697106e-07
9.7928162993010808382e-07
9.7998994583542625486e-07
9.806851948502828659e-07
9.8233149590857254359e-07
3.5878174316021209942e-05
3.0598268456713464004e-05
2.5915747509990611148e-05
2.1825591941429180767e-05
1.830517978319640547e-05
1.5314181179283770724e-05
1.2797651722527466354e-05
1.0695129243168982844e-05
8.952043948048503413e-06
7.5238814645246824569e-06
6.3711222522270705943e-06
5.4551357091899330782e-06
4.7373431815182573068e-06
4.1831436256094935513e-06
3.7584913006471423684e-06
3.4324842942042761311e-06
3.1778706146132793999e-06
2.9779522156324325929e-06
2.8237847583190912332e-06
2.7111404679495151618e-06
2.6310938433034757069e-06
2.5715294122259742387e-06
2.5192234091428741892e-06
2.469769700817271852e-06
2.4225606468453287926e-06
2.3810725829414794717e-06
2.3448220741520773623e-06
2.3135501757299064624e-06
2.2837526557933119418e-06
2.2553257256250470688e-06
2.2257533892369372908e-06
2.1961364272888510789e-06
2.1643922384779853368e-06
2.1311070584443278595e-06
1.0291910683661704664e-06
1.0303814170419520042e-06
1.0311497488532347152e-06
1.0314418790509981234e-06
1.0313962522758919128e-06
1.0307298442168694277e-06
1.0286935310722793654e-06
1.026591911884887518e-06