/*--------------------------------*- C++ -*----------------------------------*\
  =========                 |
  \\      /  F ield         | OpenFOAM: The Open Source CFD Toolbox
   \\    /   O peration     | Website:  https://openfoam.org
    \\  /    A nd           | Version:  12
     \\/     M anipulation  |
\*---------------------------------------------------------------------------*/
FoamFile
{
    format      ascii;
    class       volScalarField;
    location    "0.00519";
    object      k_0;
}
// * * * * * * * * * * * * * * * * * * * * * * * * * * * * * * * * * * * * * //

dimensions      [0 2 -2 0 0 0 0];

internalField   nonuniform List<scalar> 
106891
(
0.012510013983771288773
0.012503027805053520266
0.012490380935848350782
0.012483472917268674876
0.012470230289179182886
0.012463142547112462943
0.012450078268531091299
0.012443237335834567842
0.012430503092039763696
0.012423952257530764334
0.012408148797930980758
0.018102972822070975689
0.01809982486216433345
0.018092346816523104808
0.018071995414382317074
0.018026633952182190973
0.017980459567484660677
0.017934375708978374936
0.017893370702759231472
0.017854609705886079207
0.017821581632872392914
0.017790742801386535271
0.01776584085325755985
0.017742564492692829842
0.017724110104338816618
0.017705645593119934134
0.017690022326046168921
0.017673525178986685541
0.017659575266846607583
0.017644992665857017061
0.017632357047739782158
0.017618033990162387803
0.017604762579993320226
0.017588497158932084319
0.017572969474709758397
0.017555970141529344403
0.017541230418727141172
0.017524868823333282497
0.017510665644340735192
0.017495388623890877067
0.017482267946215220011
0.017467331787222751399
0.017453468846496456024
0.017436624016266451254
0.017421143852523926498
0.017403167195183436022
0.017386784597592571527
0.017369002826477845935
0.017353155380705639205
0.013243158581066397789
0.013229960154386894572
0.01322255238449768569
0.01320922767073597591
0.013201690677619641254
0.013188084202229501465
0.013180281505656324392
0.013166714197657388222
0.013158928471278589362
0.013145305339972638073
0.013137568086079048912
0.013123389535956259469
0.013115674735621802097
0.013100882032284282344
0.013092867729978681021
0.013078350638171821682
0.013070631216962579069
0.013056226749094746939
0.013048700188165866451
0.013030734189914782231
0.019079643951199171809
0.019067785246846172265
0.019032807197641551239
0.018980728030289030495
0.018928619301581527806
0.018881533182406737975
0.018835979051498460968
0.018796192745252654488
0.018759055420386788054
0.018728621075836646842
0.018700363007644563162
0.018677803563664142905
0.018656012780860268402
0.018637720148045360674
0.018618653434620970055
0.018602191854199711524
0.018585277917541848797
0.018570967884434422257
0.018555757312868431663
0.018542437192369847637
0.018526049298296334844
0.018509922825500905313
0.018491208035424245432
0.018474669007072994087
0.018456367758192853551
0.018440447810437288895
0.018423276044299000814
0.018408862608313435877
0.018393465729605242009
0.018380338703492291735
0.018364574807833312226
0.018350301766212405441
0.018332906924468924531
0.018316360900166320236
0.0182974365678226919
0.018280237928028297834
0.013922053541061551671
0.013907441702796395286
0.013899151952440612703
0.01388427720005630181
0.013875826680583087241
0.013860715770639384786
0.013852032222341765025
0.013836914526901208933
0.013828361730441633345
0.013813261903017876042
0.013804678952119420546
0.013788952394018659867
0.013780462396092455976
0.013764224749342539658
0.013755438805548853357
0.013739387157109273982
0.013730833421629369887
0.013714791305673742008
0.013706339491963525148
0.013686150217804188972
0.020138040428523209385
0.020134532642783121992
0.020121222528729953288
0.020077863289747237968
0.020012413671085586137
0.01995265982674750832
0.019895319392820826065
0.019844699940741894473
0.019798039015311730965
0.019759780719896705842
0.019724895766443900635
0.019696900125201408094
0.01967013650271500283
0.019647505977726055504
0.019624200279167412775
0.019603912457446481116
0.019583572937354513932
0.019566434120777000116
0.019548651380673201516
0.019532967783718966498
0.019514337915842863008
0.019496303913256168155
0.01947572616628198347
0.019457106521127684462
0.019436704048998443284
0.019418697125512029977
0.01939958922633655547
0.019383291687675392734
0.019366203163418051897
0.01935178105095124515
0.019335198478080083823
0.019320426888086720402
0.01930232879480012903
0.019284537973159654456
0.019263562825307455756
0.019244026826017873039
0.014619295430599079863
0.014610123214918535259
0.014593666164507990493
0.014584317105196691056
0.01456770744103783391
0.014558213824170041645
0.014541699379392718575
0.014532189109070873037
0.014515455064785739298
0.014506084625197928836
0.014488864744582975741
0.014479668635202416066
0.01446192155651326687
0.014452476727805505657
0.014434924796072069395
0.014425675985029806636
0.014407898558679485199
0.014398550785828858126
0.01437605644631532488
0.021293403828861117572
0.021231470740729924129
0.021155273689372203899
0.021084954008619045951
0.021017001263888449719
0.02095573313772930435
0.020898070334023396977
0.020849191873495161176
0.020804868063517417687
0.02076930659870505555
0.020736606463112504384
0.020709424993069734666
0.020682294426022210937
0.020658501444300553934
0.020634568320204448727
0.020614006561786454852
0.020593366801155279372
0.020576048576302210374
0.020556989478523024495
0.020539717905919789576
0.020519755942496702844
0.020501304497147862516
0.020480215161204944757
0.02046123749523975216
0.020440622261959254941
0.020422366487967517912
0.020402794212181545042
0.020386376103042488928
0.020368531296140426901
0.020353533952189219874
0.020335655742607639668
0.020318289727778399839
0.020297004037528609127
0.020275922459650007335
0.015384365123650782861
0.015366678465013473842
0.015356684301194696574
0.015338708526938742149
0.015328470390469377607
0.015310495687491777403
0.01530025162793107775
0.015282305346284785069
0.015271999494492219385
0.015253817881193126524
0.015243512440530871191
0.015224655402703044654
0.015214771721311432656
0.015195506116724610129
0.015185565693013870076
0.015166320430607400926
0.015156421102249960017
0.015136841005160940957
0.015126684153903859759
0.015101905122291661709
0.022394974347716575802
0.022367008947240960004
0.022298768838301757933
0.022224259952330724377
0.022155456894143468055
0.022089186406990906492
0.022031066525364229741
0.021977189745999645143
0.021932941912901061238
0.021892571690482275082
0.02185891042784857824
0.021826096620874705506
0.021797166509182213517
0.021768024578308616673
0.021742352830242599876
0.021716804318484602548
0.021695250887922210709
0.021672501209041687004
0.021652921350024601638
0.021631812479695651519
0.021613463781036651445
0.021592372345307687259
0.021572911535046410125
0.0215509921889445559
0.021531110180698389417
0.02150926688092714284
0.021490398400739945534
0.021469813940875274311
0.021452582508451268489
0.02143303325339605131
0.021415060178243367633
0.021393553430171265844
0.021372156909727216961
0.016152035068938089962
0.016141178777898772256
0.016121639589530094988
0.01611052758574243321
0.016090993774243878695
0.016079905878361003962
0.016060450212638410772
0.016049333720398517578
0.016029549567081673861
0.016018431078110531574
0.015998050075465865966
0.015987507215187206355
0.015966589596865483902
0.015956165529080815202
0.015935316215541055207
0.015924852623733446594
0.015903569419050835043
0.01589265674882724827
0.015865700272618091238
0.023509044512516914099
0.023459011675771218597
0.023385147263349562868
0.023315701038581340687
0.023248591677903097247
0.023190206035888092512
0.023136288196949052198
0.023092148444185108674
0.023051467148036165755
0.02301731583617798102
0.022983333836065395622
0.022953039028651811559
0.022922485383293268041
0.022895622813278899976
0.022868773241726519235
0.022845677723400781983
0.022821344431268143077
0.022800616575258652458
0.022778809281440451362
0.022759945021152735989
0.022738368510186093147
0.022717968689483138828
0.022694660173809205056
0.022673018356460405975
0.022649250612018733547
0.022628293245134219192
0.022605419170567384729
0.022585631894212938181
0.022563188457129932513
0.022542302607550225579
0.022517975236159466085
0.022494457009987273849
0.016978265897758481467
0.016966467141847636768
0.01694525633201623277
0.016933189014434323061
0.016911677946204958095
0.016899479752060495713
0.016878152812368617253
0.016866110987188234066
0.016844753797644860388
0.016833016455630234187
0.016811129949823311325
0.016799756836688141404
0.016777245278866932676
0.016766125096711635006
0.016743869757591178793
0.016732919603962004285
0.016710402016194982056
0.016698896479413968125
0.016671269619420881619
0.024796272626033011299
0.024718348120698039466
0.024634303075058278792
0.024558561229312228513
0.024488066715108339905
0.024429209612254951939
0.024375670602472903487
0.024330897527187457519
0.024288416184399534009
0.024251406576087243538
0.024214645720739599866
0.024181631374758857933
0.024148700581495104178
0.024120270895125018457
0.024091011342412350926
0.024065876149893656449
0.024039693840826253241
0.024017439060207528001
0.02399327914316342833
0.023970881869211629195
0.023944990865472165487
0.023919878603953895896
0.023891498710197155153
0.023866026314670853864
0.023838831844189348197
0.023815275643944158745
0.023789120530764387706
0.023765108345138431789
0.023738214940626570226
0.023713450636020441675
0.017837521621896067908
0.017814519511824056242
0.017801138712183976059
0.017777255001761787384
0.017763570127861942616
0.017740028986577862508
0.01772688335145063479
0.01770378643734479493
0.017691397185616561383
0.017668050897494100987
0.017656005347421416946
0.017632300428356669636
0.017620676409204286822
0.01759730478579629373
0.017585884174643923866
0.017562207261384472912
0.01755022737623470469
0.017522174559449162079
0.026025553034535679753
0.025947640782573541673
0.025872743254089360793
0.02580865366622439247
0.025749281906420253691
0.025699575563712089704
0.025652903133708281763
0.025613033680058752695
0.025573855222530802317
0.025539173027171329505
0.025504124442759006086
0.025473254430018816424
0.025440498133667735492
0.025412388047677317987
0.025383238120501333546
0.025358759375381189488
0.025332266888187536524
0.025308325257031919625
0.025281211443018890284
0.025255137856166939847
0.025224045649454438639
0.025194835475638433647
0.025163274435970862941
0.025136148451024027672
0.025106967719941225559
0.025080375027502849195
0.025050792628037568677
0.025023709492764726475
0.018787613291427363027
0.01876372918391348496
0.018749578647351283073
0.018724480450455008307
0.018709595024627892479
0.01868462343322392985
0.018670472840583939717
0.018646419101286733355
0.018633828834909695049
0.018610228331960344123
0.018598409529863611095
0.01857497613292985808
0.018563475102037901854
0.0185399713007165165
0.018528337339781174309
0.018504093365952836714
0.018491978495189301951
0.018465154752745686212
0.027191579716848046644
0.027123200483173525582
0.027063573857756990926
0.02700704296399829285
0.026958549183249812947
0.026912972321705252998
0.026874680892698760148
0.02683840831440788624
0.026807137331577326339
0.02677575388542411533
0.026747261847798676354
0.02671664943619922114
0.02668993161918258028
0.026662475419792996956
0.02663878508303691231
0.02661302303318397941
0.026588803040986531273
0.026561611758180010689
0.026535595694618142881
0.026505990174547470334
0.02647858708806438352
0.026448995449217645171
0.02642267357109844006
0.026393847581862056595
0.026367723034842995705
0.026339025545255589228
0.026313290964354019846
0.019658282818816902315
0.019632027738651622317
0.019609601481250411859
0.019582603324037051173
0.019559932782793530009
0.019533403804473908894
0.019511430771807412865
0.019486702603859543809
0.019465508130563340811
0.019442168728406591244
0.019421403862948046631
0.019397958140527075954
0.019376525857013396359
0.019352228228897334211
0.019329736791336829538
0.0193043689730010605
0.019281388452678533546
0.027571729014790442858
0.027502353620319826971
0.027440049021819915009
0.02738055128884670647
0.027328703707550455054
0.027279086641621239778
0.027237104954881997954
0.027198419895050767597
0.027167580809206160614
0.027138635265846002692
0.027114317800768217986
0.027087955443194578625
0.027064584862459207387
0.027038850118754922253
0.027017015057989039045
0.02699362309211968125
0.026972663129337746263
0.026948833052979164621
0.026926545158733293517
0.026900549748393978028
0.026876951763464280998
0.026851169132448237525
0.026827795555955474133
0.026801492615121030177
0.026777902326330087213
0.026751663402772296596
0.02672835651880315147
0.019775140993699463071
0.019753261645963308274
0.019713660165001735403
0.019691769971797761646
0.019652289003699075637
0.019631147710407258894
0.019592587339930300772
0.019572912622851774966
0.019535241376983449729
0.019515965677394039868
0.019477595470643652847
0.019457697291224474584
0.019417685235015053058
0.019397374863127887085
0.019346316427611122413
0.019353256171266122049
0.022338532733404008884
0.022288235498089253861
0.022239942891254523699
0.022197495977037327158
0.022158205667868097893
0.022125947673050483377
0.022096000105376132489
0.022072413676264553833
0.022050201322795708742
0.022034390181928337898
0.022019122844646781684
0.022007610312544261671
0.021993621688137850179
0.021982563837047382899
0.021969739257450573294
0.021959770221826168529
0.021948213287306648361
0.021937912188871391134
0.021924639994693660011
0.021912974836617575558
0.021898686865441729238
0.021886471861308529063
0.021872715333845403618
0.02186001899036779661
0.021845122756645619228
0.021832523446466887279
0.021818376056236092608
0.021806109120953549863
0.015748344371081898774
0.015716410292340460969
0.015699274111116122421
0.015667590640480590775
0.015650835553347688944
0.015619089842110829916
0.015602641820859665389
0.015571057537363205275
0.01555435051898839717
0.015522099459223242038
0.015505084155108605354
0.015471940566193196492
0.01545515368945671493
0.015413631040977843201
0.015427818241937216182
0.020775060248391132023
0.020716335023277562821
0.020665525509036809793
0.020619014777840224267
0.020580265898139306346
0.020544077856104063506
0.020514224014091506781
0.020485766136213386795
0.020462932713021596276
0.020441261518057227825
0.020423751206215312592
0.020404552835259732319
0.020387851300989943276
0.020369213625590860961
0.020353527621932186037
0.020336730037705728208
0.020321914629604864722
0.020304737254637435923
0.020288869657545487851
0.020269972366163714617
0.020252895216010126378
0.020234291656711974466
0.020217715785548973778
0.020199501908778033643
0.020183769161809080733
0.020166104518753318747
0.020149906944767564942
0.014813412115214774981
0.01479954606591008838
0.014773778411817609091
0.014760198426749469511
0.014734147248101464242
0.01472032163979881958
0.014694046274934870547
0.014679885452452478417
0.014653066792443462593
0.014638893632155102614
0.014611557685263535863
0.014597681215100414415
0.014564663398868095065
0.014562137931771093613
0.019953310342432705599
0.019905495056263367709
0.019861570821508012924
0.019824875401953396398
0.019790279195320985978
0.019761095597635766619
0.019732470614576679696
0.019708601602512362122
0.019685854470531581606
0.019667545051330476147
0.019648231542054857973
0.019631500066336817628
0.019612845903949526621
0.019597022902283735973
0.01958042604800550382
0.019566196811421746743
0.019549744934521891271
0.019534061230033546164
0.019514732603619324575
0.019496825914227376708
0.019477444917617180165
0.019460433036094213627
0.019442035245359801793
0.019426218336720240537
0.019408278795691884938
0.019391636468774408469
0.014267421257006850446
0.014243040451537437863
0.014230157314917829883
0.014205465731530605641
0.014191994004304622073
0.014166494071891475373
0.014152356912880319564
0.014126337132733049473
0.014112390647030926064
0.014086426945461853755
0.014073341047818111946
0.014043445390949788054
0.014039035062848818219
0.01916028126999725148
0.019118732895501849151
0.019084156513340454903
0.019051176973714827045
0.019022971570463172858
0.018994930513177108594
0.018971154016734336628
0.018948059913302683216
0.018929184695991835286
0.018909757878355623606
0.018893266769067409289
0.018875240273030894494
0.018859981686804250245
0.01884402097070650775
0.018830460774343703995
0.018814648240765639853
0.018799096790412597735
0.018779466033335374259
0.018760820071626969213
0.018740853304913478172
0.01872342390680657026
0.018705170051090062866
0.018689666722155395123
0.018672490231757828127
0.0186564193462216317
0.013704357202415341777
0.013691488273041453952
0.013667567897832562027
0.013654215933333635133
0.013629329934432447141
0.013615142831320762445
0.013589617540525223555
0.013575844704747184327
0.01355079448981092935
0.013538280326935221709
0.013509686905712171845
0.013505674991914384461
0.018416716171785554174
0.018382070312409487522
0.018349415519518724044
0.018321559359023447539
0.018293913379658906931
0.018270247897273571291
0.01824688501440618893
0.018227482269942522908
0.018207779782879584402
0.01819125179464900835
0.018173528228215312524
0.018158527278232618196
0.018142801458565956108
0.018129532157329590614
0.018114147718985552232
0.01809898427941255411
0.018079623293563860248
0.018061021970639332818
0.018041233697001748254
0.018024225975784159692
0.018006650001367533603
0.017991820872984190527
0.017975338173198320696
0.01796018402528866062
0.017685800520856685691
0.017656055621951650264
0.017631199079843371674
0.017606339151859273784
0.017584817461084582824
0.017562943940953527899
0.017544358986233837133
0.01752524720342725148
0.017509251749747330174
0.017492330962800312077
0.017477975587024612708
0.017462651089474662963
0.017449657463721939682
0.017434864080592433339
0.017420774273995662945
0.017402955035344835899
0.017385803102488075339
0.017367190364462076202
0.017350935097105321669
0.017334034450505519942
0.017319818938753790694
0.017304113675595124422
0.017289601300758152685
0.016982651183878240408
0.01695665338541018502
0.016933974908433385015
0.016910798772062689277
0.0168911003719277239
0.01687130712660682777
0.016854702612209220003
0.016837293132717024574
0.01682234787391448036
0.016806539923574410206
0.016793220680064318423
0.016778531492014817084
0.016765146702173164966
0.016748799820116282155
0.016733319940797099917
0.016716087753156690793
0.016700531048203754586
0.016684013834819301503
0.016670098711835484168
0.016654866639534249284
0.016640703122048666057
0.016248654741354232739
0.01623039151939534297
0.016214770641361977294
0.016197978592518619267
0.016183138917861286665
0.016167196811287344593
0.016153726189544147934
0.016139304827119230895
0.016126701020588180696
0.016111697561731908729
0.016097623823732379322
0.016081641912630211672
0.016066939471717809479
0.016051081424079561427
0.016037510323304637883
0.016022508480101175371
0.016008466356225770078
0.015588848866143959274
0.015572052833699371113
0.015557598166162617259
0.015542427637519640529
0.01552948065182729008
0.015514716263976281382
0.015501065577433378526
0.015485485769070625114
0.01547096754050981092
0.015455238201229397343
0.015441522675850399143
0.015426184260572307558
0.015411586242725974424
0.014993626624407027301
0.014979360305064005898
0.014964375983824230662
0.014951405475984483676
0.014936832123907967801
0.014923595886516741529
0.014908734200128621883
0.014894880013638972863
0.014879679960919324835
0.01486609386405049818
0.014850687117948133467
0.014835791792653450771
0.0088342417749758990475
0.0086674939082667431384
0.0085538867453137396729
0.0084895261383426939145
0.008461618797267599773
0.008456721390317603268
0.0084621911528487553378
0.0084976857566671382821
0.0086256548305784323805
0.0087806607953658175059
0.008889842721349162924
0.0089523414634135062978
0.0089765048939551093238
0.00897924169386406755
0.0089732445359454408168
0.0089400555773354595246
0.0088666769334702511679
0.0088184829991280484079
0.0087987786140998336393
0.0087961754279082243063
0.016157942580929979259
0.016089013169498660866
0.016058526041140625679
0.016048086435591867732
0.01604803786205805799
0.016053709076257739047
0.016063278510585539405
0.01608052422471850651
0.01610710857573045135
0.016141498479819500755
0.016170998646902468021
0.016182796931868272811
0.01618174986406700766
0.016171914926910471028
0.01613695386207463639
0.016017730962706644426
0.015694540766976735474
0.015362249517081372208
0.015114092472807707027
0.014953258358871639525
0.014867245828413745007
0.014832595947065121272
0.04494421556501889542
0.044303966774411937535
0.04380694272163818126
0.043460809547897681637
0.043224525787568343627
0.043060789522381119621
0.042951381808151750663
0.042866747486475412221
0.042803207218135019829
0.0427563876450936034
0.042732953402793399933
0.042737689848623861
0.042737002182039504627
0.04271962067871132307
0.042673123094401327338
0.042569392182724666296
0.04230231384818537721
0.041559059541064931331
0.040619210354996021506
0.039827935739183528696
0.039220094308125855176
0.038806084985562760981
0.038561765332894841485
0.038436059896619405307
0.038376389367827702659
0.038342176804798254464
0.21256178899991184927
0.21148795009186172056
0.21081553211344006282
0.21046421568419282355
0.21032613057753579699
0.21028230313283291508
0.2102846223449300056
0.21028011762105139337
0.21022985117098527685
0.21013659581014407229
0.21002159647502155471
0.2098683851546452872
0.20965578048936728273
0.20932870345649140509
0.20877499450160402761
0.20753020687740370009
0.20562527634984989477
0.20357577425217154854
0.20160089215206397628
0.19987948773363425903
0.19849666993980646934
0.19751346141186804095
0.19691321117382268313
0.19660295632851873537
0.19645210429425041809
0.19634603080464879676
0.19621610008970394312
0.19598324973804281957
1.2536585057476112848
1.2502909898497853725
1.2478400008659435994
1.2461828252983040421
1.2451387670815159403
1.2444515920086709482
1.2438779586207167061
1.2431864817274798085
1.2424546076073152978
1.2417353517868190416
1.2410018182057145353
1.2402300720367078757
1.2393541503050264918
1.2379797228272062526
1.2348383946952123935
1.2300814424650134971
1.2244318834397367457
1.2185119431915147903
1.2129918249667923646
1.2082309969788067594
1.2044378735588230356
1.2017738809196389926
1.1999009836808318674
1.1986537309404863283
1.1975335882433935097
1.196448244000604344
1.1951155092189229556
1.1936820831340977378
1.1919940068741139427
1.190333017956370476
3.7895749312385564878
3.781692418338993722
3.7737620609623956369
3.7657222467663009624
3.7575443291728154449
3.7492173053193145194
3.740705385704876651
3.7320391317696213207
3.7233069517621912858
3.7146660801273219121
3.7061076613049772632
3.6975742446694317422
3.6889902895438209107
3.6803651162291677323
3.6718082747162106294
3.6635493992284193787
3.6558108200681656008
3.6487176604027067306
3.6421860546016580074
3.6360763961461124438
3.6301834855492498555
3.6243815554019707115
3.6184893127018811221
3.6124053095699708571
3.6059934374431352744
3.5992008807505673218
3.5919088613505709695
3.5842773504983265198
3.5764727663569479965
3.5688597963512309619
3.5616432907492239224
3.5547804755237297769
6.4345954204297735046
6.4203621521931459881
6.4061121320250133948
6.3919316931875380661
6.3777547628957291792
6.3635403220293049742
6.3494824794524786782
6.3359754620450354778
6.323398816183849469
6.3118554590891093881
6.3009648243203955076
6.2901258829570796394
6.2788559767177032356
6.2670728159178787919
6.2550903477299497624
6.2433462188168666884
6.2321095770352323839
6.2212879933054354709
6.2105299116478009935
6.1995594250171883743
6.1883354920980035985
6.1770124986993257821
6.1657869291639917364
6.154753169045839023
6.1437866634891085127
6.1326855982223040797
6.1213018266869250184
6.1097687945706997681
6.0983336472249884963
6.0873507712009917725
6.076739428836421375
6.0663575511324241418
6.0555721138894336164
10.304676995305602105
10.213885916984873248
10.125853998402797984
10.041998383725454502
9.9633021500460579034
9.8892430404251747689
8.2857015489511418593
8.2689431495838103814
8.2522645590108734126
8.235653299375339742
8.2188765672923924654
8.201841406843945137
8.1848960455172985462
8.1687064988473991889
8.1538285436496096281
8.1403971700580139981
8.1278105311811028599
8.1150426763228331595
8.1013955754115301033
8.0868917305184506716
8.0722104888895334085
8.0581518878134072992
8.0450428304545109626
8.0325432934506846294
8.0199573023903596436
8.0067663633334920092
7.9930048707702239241
7.9791766511736117451
7.9657581599682067974
7.952822737083351079
7.9399806469522173913
7.9266862976761993664
7.9127259466754154005
7.8984243276351442375
7.8844567163519574393
7.8712912895931337331
7.8589040484364103278
7.8465708622745173884
7.8338888619191973106
7.8203013069535840529
9.5215226716265775053
9.4283417940257265855
9.3333975256359487105
9.24060801683287103
9.152813067106235323
9.0710859464499300486
8.9952750717189235985
7.6687279759077737751
7.6463681476305778162
7.6255199108134323893
7.6064695824776329403
7.5896596606241173433
7.5759183257340652062
7.5660675523146254662
7.5602101328262003577
7.5572664399479645425
7.5549959138270832426
7.5510929812342304501
7.5442822459094278642
7.5350961236419946587
7.5253569465058305354
7.5168528132396588148
7.5101048228391249495
7.5041693469526222771
7.4975682449632987669
7.4894229181056566347
7.4800953211924126052
7.4706643418778657662
7.4618957724686376665
7.4536877390140920951
7.4452221773058226972
7.4358228047615639866
7.425550056878968519
7.4153663074250211196
7.4064211057170723507
7.3992511958471816058
7.3931769921613499363
7.3867461919955195171
7.3786657089869853721
7.3687648995987702349
7.3579535582992097176
7.3473377928704159956
8.8694323795570882554e-07
8.8826665380300902619e-07
8.897319909698375105e-07
8.9264304251944380342e-07
8.9431161650378137322e-07
8.9836374628007826181e-07
9.0036854947302569398e-07
9.0468680007791842413e-07
9.0649473970192529593e-07
9.1016370351146922941e-07
9.1243874510856874927e-07
3.6743368355830982618e-05
3.1728048764933062273e-05
2.71714012236320851e-05
2.310345718227338821e-05
1.9529732370742239594e-05
1.6434272255519698946e-05
1.3786622938085588705e-05
1.1548316231968861002e-05
9.6770814249223236072e-06
8.1298058173247506297e-06
6.8636939177608641675e-06
5.8373904214686888334e-06
5.0130998377515482544e-06
4.358236027768945379e-06
3.843837919858652078e-06
3.4437006246454804975e-06
3.1340289680323270405e-06
2.8954306393740202315e-06
2.7102871655677166774e-06
2.5641430973371945994e-06
2.445244056189943373e-06
2.3474040968158763208e-06
2.2659808066600987359e-06
2.1988966537010343895e-06
2.1432933383181600362e-06
2.0989639406388633722e-06
2.0626890729227953046e-06
2.0321681497435875404e-06
2.0033739110473072909e-06
1.9767164305629221636e-06
1.9530905617137459051e-06
1.9356433769879431822e-06
1.9227856326016089739e-06
1.9114022730389793076e-06
1.8946841122224425085e-06
1.8712793467916262143e-06
9.2448768300842247325e-07
9.2502076901461977971e-07
9.2555648868322651914e-07
9.2600265160866314699e-07
9.2647205422408880981e-07
9.2699122238904403614e-07
9.2757215075940231077e-07
9.2819284850319290232e-07
9.288068713382226335e-07
9.2926173144369907523e-07
9.2979525710473184003e-07
9.3052615248022016714e-07
9.3123553778173700661e-07
9.3280832156516494347e-07
9.3376245254608703036e-07
9.3611906509079244638e-07
9.3723021275475020012e-07
9.3986801926078781099e-07
9.4108747207090497561e-07
9.4316086352237161446e-07
9.4517540797960780341e-07
3.9164252269229960087e-05
3.3666561463351667919e-05
2.8712957777604733071e-05
2.4317299151830244839e-05
2.0476053521449284685e-05
1.7170045258589390505e-05
1.436373905140214128e-05
1.2007302957759096354e-05
1.0044691805753258319e-05
8.4231090662185763659e-06
7.0964574367058290831e-06
6.0232654512240212935e-06
5.165667364849357344e-06
4.4914549396991115839e-06
3.9705700001701580779e-06
3.5739485353973450386e-06
3.2725815166179123215e-06
3.0420080880657102348e-06
2.8628468161779484206e-06
2.7220965147097623743e-06
2.6099268474703686941e-06
2.5196148366691221609e-06
2.4436895426883539966e-06
2.3776661668304687917e-06
2.3179129799001766825e-06
2.2656984286910179297e-06
2.2203246848529790291e-06
2.1817494379919440661e-06
2.1467292003041764826e-06
2.1146614184334050207e-06
2.0851439580172855668e-06
2.060535709569562158e-06
2.039073165057026123e-06
2.0186617101159940229e-06
1.9939181010162977578e-06
1.9650662361512902067e-06
9.7662756760863874653e-07
9.7717401254471895031e-07
9.778984445375402989e-07
9.7837715421550778969e-07
9.7863627459268368741e-07
9.7869726703727557205e-07
9.7834430439173961559e-07
9.7752478854504673455e-07
9.7676413024000680454e-07
9.7607701004306812713e-07
9.7562914440776491693e-07
9.7545584046765549128e-07
9.7566520671201931143e-07
9.7646139125044108018e-07
9.7676837240246955913e-07
9.7772758153278750305e-07
9.7803423253942517942e-07
9.7923115229238223178e-07
9.7993155908079884807e-07
9.8062243986466918785e-07
9.8225830979231140542e-07
3.5855438574768788446e-05
3.0577822282556629244e-05
2.5897606191310543596e-05
2.180975690699672582e-05
1.8291574065279994117e-05
1.5302632949567192549e-05
1.2787940450661329422e-05
1.0687030444173094808e-05
8.9453558579776575022e-06
7.5184292351306371993e-06
6.3667402815279415214e-06
5.4516610885911799989e-06
4.7346303530905061542e-06
4.1810560336767079045e-06
3.756884826629956394e-06
3.4312246361301092087e-06
3.1768693474227011036e-06
2.9771682543675702544e-06
2.8231881814271287873e-06
2.7106872359591696381e-06
2.6307334817496968714e-06
2.5712217778891501305e-06
2.5189449389313223552e-06
2.4695081618504050798e-06
2.4223155335931691229e-06
2.3808530636362344333e-06
2.3446349670820341518e-06
2.313384809895063111e-06
2.2835898415701339937e-06
2.2551568131472363079e-06
2.2255835744589608276e-06
2.1959691307144890827e-06
2.1642182994657804101e-06
2.1309185702001916048e-06
1.0291496609899944913e-06
1.0303379192897694635e-06
1.0311004369940537877e-06
1.0313848214326829382e-06
1.0313298722925307924e-06
1.0306467187919577932e-06
1.0285938684289732483e-06
1.0264880873064746498e-06