/*--------------------------------*- C++ -*----------------------------------*\
  =========                 |
  \\      /  F ield         | OpenFOAM: The Open Source CFD Toolbox
   \\    /   O peration     | Website:  https://openfoam.org
    \\  /    A nd           | Version:  12
     \\/     M anipulation  |
\*---------------------------------------------------------------------------*/
FoamFile
{
    format      ascii;
    class       volScalarField;
    location    "0.00519";
    object      p;
}
// * * * * * * * * * * * * * * * * * * * * * * * * * * * * * * * * * * * * * //

dimensions      [1 -1 -2 0 0 0 0];

internalField   nonuniform List<scalar> 
106891
(
98676.631966745582758
98682.69159348050016
98685.277562503819354
98684.460234494283213
98680.775097164252657
98675.241059688909445
98669.132029102242086
98663.785940675850725
98660.377821753500029
98659.584987447669846
98662.161933801573468
98799.539899074909044
98791.854683832512819
98784.740900841585244
98782.032053332950454
98784.668622396507999
98789.068294559692731
98788.550852564774686
98777.395219178200932
98754.643972826161189
98726.241400433529634
98702.050423606211552
98690.276443430804648
98693.105517288349802
98705.714940915320767
98720.01558912821929
98730.079946681464207
98734.966399489989271
98737.540311662480235
98740.399085988698062
98742.928213801525999
98741.192626658637892
98731.04020831323578
98711.436646675661905
98685.665862428970286
98659.549062834325014
98638.312115218024701
98624.470562900969526
98617.839153752225684
98616.804736844802392
98619.323847577281413
98623.188008727098349
98625.890885585191427
98625.025734304537764
98619.536523587958072
98610.859175586592755
98602.630242487153737
98598.424213446283829
98598.76790720927238
98600.939178429296589
98609.718233536070329
98618.580302409449359
98628.223973678657785
98639.023352172327577
98650.908409439231036
98663.424529834592249
98675.71649232810887
98686.709808179846732
98695.300413863966241
98700.660547916995711
98702.384160616245936
98700.605720275998465
98695.858101919235196
98689.070735045694164
98681.339285605223267
98673.914684486881015
98668.01276980197872
98664.441098156501539
98664.190749706278439
98772.426210337202065
98770.384428336314159
98773.803268819741788
98781.373956288894988
98788.210142617754173
98787.442152913761674
98773.932023133675102
98748.257783282257151
98717.913209258811548
98693.562943932862254
98683.531808724277653
98689.16826923082408
98704.405809293850325
98720.265627511835191
98730.600372942717513
98734.896150228756596
98736.814413056301419
98739.895111310732318
98744.058143738977378
98745.309542708419031
98738.649139048429788
98721.805624648273806
98697.09358985889412
98669.904524647034123
98645.756741223158315
98628.206079199531814
98618.346426208634512
98615.369639357420965
98617.569035288979649
98622.794127261193353
98627.891805696111987
98628.871976199530764
98622.81161180298659
98610.139939387605409
98594.950500131380977
98582.460270966286771
98614.738610846499796
98623.005835233503603
98631.681998664236744
98641.496416624315316
98652.675319982954534
98664.876134199366788
98677.244164086019737
98688.784838801220758
98698.491720767284278
98705.597736889627413
98709.634587319596903
98710.500614300646703
98708.417560792790027
98703.849396493111271
98697.470501223535393
98690.047448157143663
98682.478611592872767
98675.77735675223812
98670.737926598347258
98668.446555302143679
98747.837971214408753
98754.151854727548198
98765.011261083825957
98776.262611388592632
98782.623211269150488
98778.875834460166516
98762.532706242651329
98735.991035748520517
98707.288726776605472
98685.670065426587826
98678.298826719998033
98685.539351445579086
98700.83844170611701
98715.801675633367267
98724.866757108640741
98727.926578646889539
98728.806622861797223
98731.307515692082234
98735.9832091244607
98739.45499394692888
98736.509018282566103
98723.906172536153463
98702.493928156502079
98676.593963038350921
98651.694882711337414
98631.993945314272423
98619.494415608700365
98614.337745574841392
98615.45079606003128
98620.591962835285813
98626.048727073692135
98627.002746281534201
98619.413620754537988
98602.601185797408107
98580.382456763210939
98559.14125346437504
98634.646422981895739
98642.506361513922457
98651.674414556342526
98662.138966023732792
98673.328594124715892
98684.276187210562057
98693.954747437514015
98701.512782496400177
98706.525396245793672
98708.954592361566029
98709.078278761109686
98707.325543930492131
98704.135543611773755
98699.875957242038567
98694.824726526305312
98689.315370587777579
98683.877897363316151
98679.065805901016574
98675.86532942984195
98736.875492635415867
98755.54231750695908
98769.052044471580302
98772.353342443369911
98763.453560009453213
98743.71243213028356
98718.137840024341131
98693.83582388087234
98677.976686975744087
98674.057905115158064
98681.117351202992722
98693.962198171502678
98705.665589736963739
98712.016167788213352
98713.161367121007061
98712.38361853112292
98713.272905798890861
98717.025524280135869
98721.418912404842558
98722.044581668669707
98714.979732462976244
98699.261743752795155
98677.516664048394887
98654.397729969670763
98634.306337907721172
98620.053115126895136
98612.639145169450785
98611.405642693935079
98614.185272801056271
98617.364259404625045
98616.25521656141791
98606.457296674183453
98586.295724699652055
98558.655338403041242
98640.772388896730263
98646.300252699409612
98652.640234649530612
98660.269251719597378
98668.889916667263606
98677.688054238838959
98685.677635084735812
98692.003814882133156
98696.226833642402198
98698.432428856598563
98699.11297864712833
98698.899485566857038
98698.357986745060771
98697.804442305234261
98697.224068550174707
98696.3409934482479
98694.868494794820435
98692.791223842781619
98690.171987648733193
98687.662937768298434
98719.639632494960097
98744.313496583039523
98758.548313082443201
98757.725638791904203
98742.623443681324716
98718.785102096313494
98693.861449783100397
98674.471573792310664
98664.569150146126049
98664.421546091456548
98671.079514571669279
98680.227826454676688
98687.702311062996159
98690.845252473387518
98689.78766170993913
98686.949765044846572
98685.42964235090767
98687.165873914127587
98691.579913332403521
98695.575583412035485
98694.907562297783443
98686.612373976648087
98670.963801959893317
98651.25925507809734
98631.943145467943395
98616.599658023013035
98606.903774477585102
98602.522421883899369
98601.505560233563301
98600.669877772787004
98595.989406270018662
98583.476969395283959
98561.151927150800475
98658.893382394759101
98663.326472727261716
98668.297820233856328
98673.557684501749463
98678.406733157185954
98682.101543415847118
98684.167223071010085
98684.678826515213586
98684.195280043000821
98683.620426604364184
98683.8452996006381
98685.477362607241957
98688.59161902021151
98692.789672232145676
98697.274557944154367
98701.158169965681736
98703.808712011610623
98704.843747426159098
98704.475382965421886
98728.906434616699698
98741.851911021833075
98736.989710875117453
98716.957846062403405
98689.395875201313174
98663.366015052612056
98645.73506500296935
98639.096782573178643
98641.596037689596415
98648.847467047657119
98656.298084762674989
98660.933560835648677
98661.696385109011317
98658.959650000804686
98654.322388558663079
98650.54231365963642
98650.29375051149691
98654.52929268713342
98661.268654338331544
98666.06025481823599
98664.433332397602499
98654.548816303213243
98638.270869955871603
98620.1245580574614
98604.3858091836737
98593.112772230088012
98586.105461810904671
98581.499108169184183
98576.344318742543692
98567.423105036272318
98552.084603259005235
98529.509754037047969
98672.070048697845777
98674.046685805180459
98675.093430189837818
98675.261147022873047
98674.448316625785083
98672.616352368524531
98669.992523089284077
98667.148973693620064
98664.986505412860424
98664.49278712584055
98666.495830089799711
98671.399563544982811
98678.972349504896556
98688.460118754708674
98698.670532875315985
98708.262547767168144
98716.0907017144782
98721.302224747283617
98723.767291286261752
98715.947345621170825
98707.264983162298449
98684.60131978453137
98654.983211159487837
98627.050407286864356
98607.81088892587286
98600.048650350159733
98602.122116069644107
98609.66186230238236
98617.739576727370149
98622.886177251872141
98623.840629904007073
98621.10557252370927
98616.47327063967532
98612.581634995905915
98612.24405322704115
98616.882174327329267
98624.932846880576108
98632.108222475464572
98633.479899378900882
98626.536893548560329
98612.597793634689879
98595.706906968393014
98580.207939552667085
98568.559860685476451
98560.446479547754279
98553.49529378299485
98544.977783273920068
98533.026217846709187
98517.057941442661104
98686.06587290285097
98681.885781605451484
98675.538168240935192
98667.870823427394498
98659.857779636324267
98652.558751498174388
98647.089015135235968
98644.470765036079683
98645.498049204237759
98650.525916922008037
98659.377266843424877
98671.354374958042172
98685.36022142857837
98699.998336955162813
98713.764476159441983
98725.347303849164746
98733.688425758911762
98738.43802141166816
98667.939562318089884
98645.399498747719917
98616.315982432628516
98586.937247018606286
98563.885738493569079
98551.421459304096061
98549.876330005645286
98555.821944024937693
98564.323989173091832
98571.44374238938326
98575.232354797117296
98575.760250421051751
98574.600478482359904
98574.230910613841843
98576.721517985861283
98582.47865866709617
98589.70094927540049
98594.775538935136865
98594.11057092876581
98586.300651893194299
98573.008403406332945
98557.886888836175785
98544.364795419882284
98533.87889309185266
98525.481267170951469
98517.038613669748884
98506.991501421114663
98495.293669868740835
98702.029753473791061
98692.278064015466953
98679.419462978388765
98665.243376813057694
98651.763214687496657
98640.864176835122635
98634.06661014459678
98632.381802726900787
98636.123756015716936
98644.877614601980895
98657.570888866393943
98672.752518588808016
98688.910714070647373
98704.605041379865725
98718.578013421254582
98729.892910887734615
98737.947183867756394
98742.658485330437543
98606.026082693060744
98578.749212254217127
98549.082895176339662
98522.706837752397405
98504.638555975878262
98496.712820280634332
98497.267393217392964
98502.700934073276585
98509.81632771679142
98517.129212169864331
98524.30871233662765
98531.432217560810386
98538.662597986738547
98545.810422477487009
98551.957935931684915
98555.370591325990972
98554.218517534100101
98547.558704151349957
98536.206364324869355
98522.573237601784058
98509.400853470302536
98498.398399031822919
98489.493379400810227
98481.395259809534764
98473.123686480335891
98465.052554370719008
98458.608173186017666
98709.122005105702556
98691.961222874044324
98674.04756100801751
98658.054528482738533
98646.342221566141234
98640.517548457937664
98641.158583925265702
98647.843413061389583
98659.379619307568646
98674.076950994320214
98689.96101855179586
98705.052145536625176
98717.796057386905886
98727.399872833266272
98733.766990113450447
98737.313680259889225
98738.745264096010942
98595.606044171669055
98575.249076463020174
98548.637634835671633
98519.588816021074308
98492.463410509284586
98470.486022509707254
98454.982601069146767
98445.963859135372331
98443.256357029953506
98446.814353671477875
98456.034790507226717
98469.257305733553949
98483.957590660254937
98497.430164743287605
98507.697738860122627
98513.389468851775746
98513.490800686340663
98507.541796595294727
98496.332159218625748
98481.891618997295154
98467.056760004619719
98454.339540434812079
98444.756357694175676
98437.720156880342984
98432.209690761417733
98428.146326396657969
98426.616932307020761
98716.581214173609624
98700.182881582673872
98686.64391005973448
98677.863056426940602
98674.984134082958917
98678.208491988087189
98686.607540538418107
98698.367077992559643
98711.296947092996561
98723.253879809723003
98732.575296843293472
98738.380151633959031
98740.637408465467161
98740.052000455892994
98737.746509993070504
98734.870928149597603
98580.008072392694885
98559.776587486587232
98534.12042602931615
98508.186664766079048
98484.681298283947399
98463.369174798135646
98443.39660501779872
98425.706434470266686
98413.45647663755517
98409.758953736163676
98415.184454986068886
98427.065777458788943
98441.114699948011548
98453.505693511018762
98462.334362592489924
98467.138643442667671
98467.648668651876505
98463.237025243361131
98453.534547613104223
98439.597532444080571
98424.088439289640519
98410.189488576579606
98400.104689714295091
98394.543263461309834
98393.294238158152439
98395.98179811364389
98402.402079351319117
98412.347901802815613
98739.705360610081698
98732.493370412586955
98729.187812021031277
98730.031658949854318
98734.545881092970376
98741.518043321775622
98749.158823651654529
98755.792942929489072
98760.186005621450022
98761.625923226121813
98760.026652215674403
98755.906676941827754
98750.139747845445527
98743.944128185452428
98738.477407393002068
98548.091572892226395
98525.551128711987985
98504.750593104748987
98486.745705703127896
98468.870557847403688
98448.57913470773201
98426.864591195379035
98408.230152900447138
98397.447781082373695
98395.966981696445146
98401.253843273108942
98408.90010763835744
98415.730245158629259
98420.837491245227284
98424.61747994198231
98426.861125641691615
98425.997509411623469
98420.136690202911268
98408.875505597054143
98394.147351838299073
98379.568031957212952
98368.787299063347746
98364.204291002999526
98366.528209570926265
98375.094856543437345
98388.403772903242498
98404.321201216022018
98778.446806953594205
98780.422081815544516
98784.026166692681727
98788.162096847401699
98791.638992394087836
98793.580938710976625
98793.287121421904885
98790.499555749862338
98785.25733845452487
98778.124755959957838
98770.039125199473347
98761.916268060609582
98754.447211843027617
98748.118560782575514
98517.406664680864196
98504.283161804080009
98493.214892023432185
98480.482960339868441
98462.503261764446506
98440.202912425447721
98417.989639036517474
98400.667343838402303
98390.393305083285668
98385.743734828545712
98383.811286086391192
98382.906463486433495
98383.395608603168512
98386.188859211382805
98390.699729761283379
98394.159235557672218
98393.04136437085981
98385.497836585942423
98372.761334098802763
98358.609221738486667
98347.693776254585828
98343.728006122299121
98348.4878619616793
98361.468096221418818
98379.840807445725659
98399.304069621372037
98829.760533418317209
98835.079807927599177
98837.776728940909379
98837.24550431939133
98833.282464798525325
98826.174315624200972
98816.640005786204711
98805.782172995430301
98794.712902440791368
98784.396761035328382
98775.38642563096073
98768.099237596936291
98762.169376551260939
98501.541502587424475
98498.872622962968308
98492.678497528060689
98478.570519712913665
98457.892405644030077
98434.587430550556746
98412.842624823766528
98394.732074077706784
98380.187305183004355
98368.292265982774552
98359.150294782652054
98354.401146254269406
98355.447145665588323
98361.412700744636822
98368.53556224393833
98372.134158118671621
98369.054837141462485
98359.574491001214483
98347.225280003505759
98337.109582641569432
98333.788285258153337
98339.770913816639222
98354.632311220295378
98374.861685173978913
98394.598666016347124
98877.874134328434593
98878.667051637035911
98874.239454670649138
98865.250203839546884
98852.812686302626389
98838.451781749099609
98823.936133674709708
98810.798628728938638
98799.89757549863134
98791.48143506811175
98785.120216995725059
98779.763926133178757
98498.250933578223339
98498.070952819340164
98490.552700651795021
98473.500639069578028
98450.854778587498004
98427.194076863306691
98404.652024403418181
98383.449763827200513
98363.839843940455467
98347.510002593233366
98337.211761742917588
98335.050921118119732
98340.345138949880493
98349.316003666608594
98356.626455955134588
98358.189814449782716
98353.109374117528205
98343.98264021545765
98335.644433339693933
98332.995969018462347
98339.143059819078189
98353.769898542144801
98372.769211049351725
98389.688234798770281
98496.249722335327533
98493.632649641280295
98482.356032526688068
98463.610767964666593
98440.775045333226444
98417.207140881699161
98393.321773650415707
98369.626004360878142
98348.250711757413228
98332.782189693680266
98326.286356074211653
98329.004789615573827
98337.648425123392371
98346.789645592769375
98351.700741271561128
98350.530176482250681
98344.98502250709862
98339.252247870856081
98337.971438453605515
98343.956587285676505
98356.720185625643353
98372.190763654929469
98384.2640130030195
98483.85771954273514
98470.159746937788441
98451.742558928890503
98430.565991325333016
98407.923731843082351
98383.767331033479422
98359.924971452419413
98340.263159295282094
98328.795473058344214
98327.141952653226326
98333.146670607849956
98341.855376443301793
98348.229129048806499
98349.754579654079862
98347.372496089970809
98344.539194936762215
98345.148510916507803
98351.237217804373358
98361.806427042392897
98372.756437783464207
98378.787025513855042
98423.629509006888838
98402.390764909243444
98379.022618315648288
98356.934192511689616
98340.790347845220822
98333.674781328692916
98335.082608669486945
98341.080992635237635
98346.825932510837447
98349.345618202685728
98349.002987118379679
98348.627012531171204
98351.3048108008079
98358.02497303247219
98366.794352191471262
98373.458871080772951
98373.873530561118969
98359.845799217189779
98347.267254551508813
98342.92245730565628
98344.347553341969615
98347.372655893690535
98349.029623407492181
98349.262574246677104
98350.385853118234081
98354.641678051979397
98362.152179114171304
98369.905861846156768
98373.637633291931706
98369.92786773192347
98366.081682699310477
98356.011057468305808
98351.855138472979888
98350.400774737354368
98349.143786453816574
98348.194170974878944
98349.559498198272195
98354.79715042495809
98362.95667707073153
98370.348256942495937
98372.504077622346813
98366.557425380058703
98505.966296988772228
98488.710758252462256
98492.805538776417961
98514.166762422435568
98540.988968763340381
98560.651557774690446
98566.933152559839073
98562.9654347540054
98556.659711419197265
98553.922466107731452
98555.917683276333264
98560.656592862491379
98566.551759374226094
98573.997785956016742
98583.494216079547186
98593.062637503331644
98599.317028047604254
98598.972678444813937
98592.889619510213379
98584.37244377679599
98534.238354625253123
98492.889500692719594
98470.594531350332545
98471.958725569362286
98493.948165166773833
98524.004121606238186
98547.051292926262249
98554.878891473752446
98550.207735365576809
98542.783049843870685
98540.940918312189751
98546.947951701877173
98557.256782132200897
98567.450740970874904
98575.511941409742576
98582.843605501577258
98590.10875597933773
98596.537264919432346
98599.402360251930077
98596.998799139182665
98590.275549118261551
98581.587268967312411
98635.466751631727675
98581.209987346228445
98527.450050590719911
98481.898550500147394
98454.38328258418187
98453.073978114392958
98475.658012100408087
98508.890502389782341
98535.206490063705132
98544.599298009867198
98539.360943983469042
98530.825941510745906
98529.682889422518201
98539.207705972803524
98554.59367215790553
98568.52261750564503
98577.122804122918751
98582.15438475101837
98587.16350726649398
98593.633761616991251
98599.621832621851354
98600.942734638272668
98595.862252842518501
98585.736662808427354
98575.652511724969372
98572.370521102609928
98676.873981315991841
98632.012150156355347
98578.377465731100529
98522.007765124144498
98472.373316916229669
98440.695318496829714
98436.892519515065942
98459.919064628935303
98495.942042248920188
98525.378076034612604
98536.12972371687647
98530.408517897041747
98520.754578957799822
98520.133780923642917
98532.710122828910244
98552.570786095151561
98569.755015832008212
98578.731829314347124
98581.484058422414819
98584.28276670408377
98590.832236798465601
98599.670335130780586
98604.655787012743531
98601.032202898044488
98589.475078754679998
98576.235613384487806
98570.66878546247608
98578.708369673549896
98706.40848431296763
98671.951033911114791
98629.272493911659694
98576.817085136513924
98517.997183072118787
98464.189271166062099
98429.016590644998359
98423.008409976013354
98446.641582250536885
98485.279658492290764
98517.610996964736842
98529.597579666806269
98523.26418593278504
98512.460684519319329
98512.148887620918686
98527.40820250089746
98551.191486395167885
98571.148791677071131
98580.235402504433296
98580.881088348862249
98581.550612695282325
98588.299879429410794
98599.694326190539869
98608.023933470409247
98605.75531508369022
98592.713519712298876
98576.537440394109581
98568.833608666638611
98577.372905054391595
98599.561487101294915
98729.528410683546099
98701.620324201183394
98668.121901091682957
98627.455801962365513
98575.924072792113293
98515.30952298649936
98457.671083309891401
98419.007670392500586
98411.378801901009865
98435.822717144867056
98476.973519198436406
98511.865937515132828
98524.930074677147786
98517.784680900658714
98505.790573357240646
98505.618150171925663
98523.199300086140283
98550.313636281978688
98572.603531616739929
98581.610453808258171
98580.365182114532217
98579.141949136130279
98586.05515731376363
98599.755969244259177
98610.998655868097558
98609.964498687899322
98595.432832870341372
98576.537911840088782
98566.934743091143901
98575.972571354490356
98600.658618225701503
98627.686943217355292
98727.027763338628574
98697.999001924981712
98665.347345756075811
98626.278280209124205
98575.477833156619454
98513.543891485242057
98452.695415244146716
98410.98710700670199
98402.001939600537298
98427.378414631763007
98470.946374739476596
98508.008129185371217
98521.9259391582018
98513.883301789566758
98500.684369935726863
98500.542340631393017
98520.007703499126364
98549.872073629914667
98574.014387857532711
98582.836628946155543
98579.940939772452111
98577.190439834012068
98584.173483369391761
98599.886359103940777
98613.532552329546888
98613.517226128620678
98597.604339207522571
98576.272802861712989
98565.117980220995378
98574.574544445771608
98601.500967138243141
98630.80995708797127
98647.855689921110752
98976.856938783021178
99010.95192610535014
99018.488758496474475
99017.075678423469071
99014.199615207719035
99001.319825951679377
98725.451054021614254
98695.595034596131882
98663.551170405378798
98625.686499197676312
98575.386230015647016
98512.509178758657072
98449.279541431867983
98405.148110948211979
98395.355845003359718
98421.568900891099474
98467.141586671918049
98505.842078878544271
98520.277405519693275
98511.412251101413858
98497.10030689073028
98496.957388865033863
98517.796549444145057
98549.743927621573675
98575.187307354033692
98583.816856607576483
98579.612108370361966
98575.742237994476454
98582.808363159609144
98600.059909992778557
98615.495811866945587
98616.148891489268863
98599.143458115591784
98575.832650791664491
98563.562219974977779
98573.421474125876557
98602.071247059691814
98633.046799832911347
98650.696015296547557
98652.379062756284839
98909.074135321978247
98977.371626764361281
99011.455022676702356
99018.502911153351306
99016.446812679845607
99014.351062170229852
99002.75417744051083
98724.649922155527747
98694.370444474203396
98662.711403491150122
98625.403918885989697
98575.353004148826585
98511.984015812035068
98447.347795981317176
98401.791883943180437
98391.889308679164969
98418.74935524025932
98465.396567673204117
98505.038375628559152
98519.59568335073709
98510.187396203386015
98495.171014223931707
98495.108722696342738
98516.732659926652559
98549.818223629597924
98575.930610832991078
98584.414951154787559
98579.42276925581973
98574.957875656094984
98582.129845656367252
98600.223233303651796
98616.651464078691788
98617.57333680006559
98599.912232529153698
98575.388010334674618
98562.61125872071716
98572.839648885070346
98602.38402416856843
98634.311622600696865
98652.212474419968203
98653.39357775078679
98649.606083878097706
98620.252434269903461
98620.168640660034725
98621.715905118064256
98626.236890180167393
98634.26973843081214
98645.557701762358192
98659.036962232014048
98673.082202337071067
98685.862619231076678
98695.632061237556627
98701.383164686121745
98733.275492064727587
98743.961543979894486
98751.733420359407319
98755.432030256270082
98755.928701301818364
98755.040569045202574
98753.014696511003422
98748.408872662359499
98739.974101175088435
98728.848819007675047
98718.277918253777898
98711.080707677989267
98706.683583363948856
98701.146176254696911
98689.849007044656901
98671.594826430067769
98650.389873416730552
98634.174868892354425
98629.473926288366783
98637.654170463662012
98653.871978332768776
98669.894231941449107
98677.724820785588236
98673.177613178660977
98656.938335341823404
98633.147992015496129
98607.925916674968903
98587.543601484881947
98576.532195717591094
98576.39661404058279
98584.815782698380644
98596.655362811507075
98606.512708172522252
98610.937147731077857
98609.19750807688979
98602.658549624538864
98563.497261075608549
98577.794480260199634
98591.085636031770264
98603.044287753335084
98613.31538053607801
98621.485620104082045
98627.150901776753017
98630.159517547988798
98630.802754874370294
98629.758391417955863
98628.105530044456827
98627.209954440782894
98628.470761398566538
98633.076358595120837
98641.490600105491467
98653.331388523365604
98667.415403336664895
98682.03816972169443
98695.383053231707891
98705.694129742652876
98712.006006247116602
98755.639353714228491
98769.516907289464143
98772.377687121785129
98765.287733643388492
98753.150822350566159
98741.057591475197114
98730.991404230182525
98721.698469831055263
98710.383568536359235
98697.646983661383274
98686.514575050736312
98680.200750856020022
98679.384395949513419
98680.44287566850835
98678.25946268637199
98669.668061860691523
98655.7801708925399
98641.819655155923101
98633.772505361004733
98634.325966585427523
98641.608361898703151
98650.488575081923045
98654.930483861011453
98650.930996565803071
98637.602781796318595
98617.335142679890851
98595.136530996256624
98576.982133853685809
98567.864710706024198
98569.537693412305089
98579.345516510060406
98591.692837890659575
98600.79346524765424
98603.025916352387867
98598.177791816502577
98588.715890685140039
98602.73196432091936
98618.652601000227151
98631.092698672509869
98640.018709300260525
98645.674609493580647
98648.428223028444336
98648.728908477554796
98647.01708141763811
98643.930121684767073
98640.319175785043626
98637.245118782666395
98635.867793908837484
98637.229281919033383
98642.058723911453853
98650.564235260200803
98662.260187280946411
98675.950481694570044
98690.05595931535936
98702.91991443245206
98712.915469550323905
98719.233217399698333
98787.694451811199542
98783.023102581093553
98764.55806425960327
98740.598797769693192
98718.627190422310377
98702.371529411349911
98690.116813638087478
98678.586688561947085
98666.342637254085275
98655.900348000999657
98650.561369726114208
98652.202913603934576
98658.869419731505332
98665.296159107150743
98666.445194765969063
98660.406164569503744
98649.177935530955438
98637.311351583266514
98628.922601489408407
98625.850896248040954
98626.870220971322851
98628.485611539625097
98626.550641180787352
98618.021486167708645
98602.910330627855728
98584.738798012273037
98569.265456059831195
98561.833286065666471
98564.408852438311442
98574.435814166412456
98586.218115247873357
98593.727668021077989
98593.439318135773647
98585.613520873957896
98655.286434202454984
98667.389996316211182
98674.024628980187117
98675.994524830646697
98674.375934344425332
98670.289485667584813
98664.775913053948898
98658.806987134012161
98653.327558869990753
98649.267293925891863
98647.503560520635801
98648.729255566795473
98653.272360118877259
98661.02954720876005
98671.435803089174442
98683.43088832491776
98695.691963744771783
98706.917998859338695
98715.805513882893138
98721.745109884810518
98788.403890696528833
98776.300504555241787
98749.85219675078406
98718.677170406488585
98691.367018660792382
98671.942916306681582
98659.402219257855904
98649.88908492855262
98640.287181328123552
98631.158487383785541
98626.241469368615071
98628.032094343172503
98636.430875083795399
98647.73206326716172
98656.329493202036247
98657.799248940951657
98650.761903897233424
98637.515151265120949
98622.821652588841971
98611.499569753184915
98605.995647849267698
98605.232966430980014
98604.981808363241726
98600.538521006092196
98590.090251401896239
98576.005657898364007
98563.402704905543942
98557.237328241972136
98559.50623194174841
98567.930082609600504
98577.220071869815001
98582.030029623943847
98579.487952543961001
98570.102815330610611
98682.626598864793777
98695.385316190542653
98701.349107474670745
98701.525325314665679
98697.368741895406856
98690.484598136346904
98682.391814342307043
98674.371052807444357
98667.469617188326083
98662.463843621415435
98659.901355975613114
98660.106654281000374
98663.173571032340988
98668.839894977994845
98676.558788460519281
98685.521597779777949
98694.784927082597278
98703.504099722165847
98710.751851237902883
98716.186214107190608
98750.461004125929321
98722.146673967581592
98690.354927189982845
98663.330985626889742
98644.93908790628484
98634.284641614940483
98627.349960526800714
98620.641471627022838
98613.292095484008314
98607.386381123476895
98606.957566965982551
98613.55216962697159
98624.986461403575959
98636.754225642434903
98643.920024727936834
98642.461252715496812
98632.186525385637651
98616.966196651992504
98602.494051581976237
98593.121237914383528
98589.518322609175812
98588.500385358885978
98585.661914335854817
98578.464344878608244
98567.872673491408932
98557.558945298485924
98551.444775778378244
98551.26511067750107
98555.574257395157474
98560.764272583037382
98563.002047729241895
98559.958037693460938
98713.635887942335103
98720.874039612375782
98721.841736914648209
98717.864333181467373
98710.522768618946429
98701.431780759405228
98692.039253157214262
98683.44485652144067
98676.438730192152434
98671.534306787376408
98668.990264539868804
98668.817951266042655
98670.768149471245124