/*--------------------------------*- C++ -*----------------------------------*\
  =========                 |
  \\      /  F ield         | OpenFOAM: The Open Source CFD Toolbox
   \\    /   O peration     | Website:  https://openfoam.org
    \\  /    A nd           | Version:  12
     \\/     M anipulation  |
\*---------------------------------------------------------------------------*/
FoamFile
{
    format      ascii;
    class       volScalarField;
    location    "0.00519";
    object      p_0;
}
// * * * * * * * * * * * * * * * * * * * * * * * * * * * * * * * * * * * * * //

dimensions      [1 -1 -2 0 0 0 0];

internalField   nonuniform List<scalar> 
106891
(
98677.175515943556093
98683.04526180200628
98685.426374356320594
98684.425927341842907
98680.610802224080544
98675.015799800050445
98668.916198255436029
98663.643693929130677
98660.363494764140341
98659.737274134560721
98662.503221942766686
98799.962074720140663
98792.207616486150073
98785.195867815651582
98782.691131620464148
98785.476801137891016
98789.804629115606076
98788.937559999452787
98777.284631885180715
98754.137028314959025
98725.663619200495305
98701.781236152688507
98690.535871817424777
98693.844438830259605
98706.66878431479563
98720.897434814745793
98730.756784583543777
98735.489663244603435
98738.030580155551434
98740.898264725139597
98743.338714186334983
98741.342097583998111
98730.821475568474852
98710.898577659987495
98684.998802247602725
98658.976316444823169
98637.980002938202233
98624.410111102435621
98618.003839786309982
98617.12042210753134
98619.711576077417703
98623.564181150053628
98626.165909559713327
98625.133497144837747
98619.47986439311353
98610.728411452117143
98602.552805420244113
98598.457345087110298
98598.819039176116348
98601.198359936548513
98609.984490084549179
98618.905922581747291
98628.651770517652039
98639.567985814108397
98651.548374346049968
98664.10779660717526
98676.371854678771342
98687.265609119931469
98695.69855074575753
98700.862790628758376
98702.377884436500608
98700.407759192181402
98695.511338591313688
98688.639657611434814
98680.895735000667628
98673.52892144289217
98667.743367971575935
98664.334441201834125
98664.281637050953577
98772.856377848831471
98771.03390994266374
98774.680353348798235
98782.351687214439153
98789.025937240221538
98787.823773718089797
98773.774312427034602
98747.716057707555592
98717.360142445977544
98693.389858398688375
98683.949542969581671
98690.082703464329825
98705.507090879284078
98721.247130267351167
98731.331718083238229
98735.453301655928954
98737.352412492458825
98740.487153852256597
98744.615418906847481
98745.642660262354184
98738.607392953796079
98721.394392075424548
98696.474773655558238
98669.296782535748207
98645.332463282626122
98628.046332781552337
98618.44630025101651
98615.674592374343774
98618.007713244383922
98623.271339885366615
98628.267009610877722
98628.999573866705759
98622.632766654744046
98609.740512465650681
98594.510280300542945
98582.124461526385858
98615.024457253413857
98623.292065561196068
98632.022338556533214
98641.923523588411626
98653.192526585960877
98665.455518398463028
98677.834705829634913
98689.323533176982892
98698.917300781962695
98705.861798154423013
98709.712207012111321
98710.390996417860151
98708.140177185938228
98703.436131446811487
98696.962942066893447
98689.497414192781434
98681.947353918614681
98675.328039696658379
98670.428678156444221
98668.324883780253003
98748.493004156422103
98755.091228768462315
98766.102445687793079
98777.310734086466255
98783.400575799983926
98779.197081098202034
98762.373843413923169
98735.545445465060766
98706.905257011938374
98685.67603238983429
98678.863914695364656
98686.53217767199385
98701.959209603694035
98716.771600988795399
98725.578877120453399
98728.469334700435866
98729.34437112257001
98731.931226795437397
98736.633199813979445
98739.949749552251888
98736.671890722747776
98723.691825803631218
98702.009317573727458
98676.035878687238437
98651.249923420604318
98631.773009644908598
98619.529259492104757
98614.606334923650138
98615.890651922396501
98621.088699918138445
98626.43109513928357
98627.08558552514296
98619.09285861045646
98601.935958058718825
98579.576782367206761
98558.425434104938176
98635.001685665512923
98642.914076160348486
98652.154401803287328
98662.677278438888607
98673.880920857714955
98684.785048678328167
98694.36956223854213
98701.798674197983928
98706.666935812390875
98708.953639778730576
98708.951494102060678
98707.093993559901719
98703.817110295029124
98699.485372338094749
98694.378740208601812
98688.841477944457438
98683.419355534497299
98678.67901899277058
98675.613379730290035
98738.160478928955854
98756.829754154241527
98770.090654604733572
98772.990751532255672
98763.657959884192678
98743.583607434746227
98717.893958490196383
98693.741718697172473
98678.244776936830021
98674.729290251721977
98682.082980314196902
98694.979948832711671
98706.518198461359134
98712.63915922382148
98713.636416786335758
98712.859922723117052
98713.852423372940393
98717.688098075494054
98722.026845052227145
98722.42427360660804
98715.029592412131024
98699.015185950411251
98677.117431179896812
98654.017969549517147
98634.076090405753348
98620.036862167544314
98612.838296489688219
98611.764304080221336
98614.592149215750396
98617.655957745184423
98616.245540893432917
98606.015346539512393
98585.438354926038301
98557.5791745599563
98641.221619463569368
98646.747934204322519
98653.132788658811478
98660.814007970577222
98669.457163671017042
98678.226994549535448
98686.132970262216986
98692.336981659274898
98696.426674875998287
98698.516138190403581
98699.116634897349286
98698.860830564415664
98698.302546617705957
98697.73874405103561
98697.134229704868631
98696.208176366519183
98694.68045222380897
98692.555233606835827
98689.917650163974031
98687.445015623932704
98721.202408033437678
98745.718708384025376
98759.517429360581446
98758.167654417600716
98742.6494297143945
98718.639923289694707
98693.797267144575017
98674.666588169988245
98665.08449467056198
98665.19302076427266
98671.965935922897188
98681.076857064748765
98688.398021069777315
98691.349126450353651
98690.16694373714563
98687.325168482318986
98685.909069229775923
98687.781218950112816
98692.260111212206539
98696.171353891957551
98695.265698595612776
98686.670261565464898
98670.785672653932124
98650.990161598077975
98631.73103275365429
98616.537891183310421
98607.012220887801959
98602.755509136128239
98601.765744087766507
98600.818554187993868
98595.865892762798467
98582.953425449246424
98560.222316295141354
98659.399177070779842
98663.847900883600232
98668.833681495932979
98674.076315763028106
98678.862547935350449
98682.456569020287134
98684.407669258624082
98684.82066231490171
98684.283332194783725
98683.712122251119581
98683.992034481765586
98685.704425133444602
98688.893180903134635
98693.12967910230509
98697.600749220277066
98701.420745673880447
98703.977560431187158
98704.917286121562938
98704.482246396597475
98730.270921037023072
98742.670270450180396
98737.219972083694302
98716.790160275952076
98689.144055435157497
98663.317659955471754
98646.046267583325971
98639.751653432569583
98642.451492889740621
98649.723927948769415
98657.060282249745796
98661.52502052175987
98662.123772990773432
98659.271204013741226
98654.611350943378056
98650.926947622574517
98650.854477008761023
98655.252999520569574
98662.02731578341627
98666.667096867153305
98664.748208328426699
98654.558271364760003
98638.094139120599721
98619.932800717040664
98604.296280275797471
98593.154519689356675
98586.237199076713296
98581.627780517374049
98576.350638337287819
98567.190778583826614
98551.542546566648525
98528.684191306456341
98672.590217146018404
98674.504396433287184
98675.494546472385991
98675.596449064280023
98674.705631178934709
98672.793688998455764
98670.105966813978739
98667.238935248213238
98665.11145329111605
98664.71437675357447
98666.861374966858421
98671.926003048269195
98679.639311006889329
98689.215078699751757
98699.439672646069084
98708.969524909960455
98716.674786098345066
98721.733318347236491
98724.050364970622468
98716.469153479731176
98707.256962296567508
98684.241345814210945
98654.559679356170818
98626.850713359235669
98608.003602698736358
98600.631694141382468
98602.963820350647438
98610.572418944793753
98618.556701586829149
98623.52647350350162
98624.303251578166964
98621.444175638680463
98616.780515104372171
98612.968543065901031
98612.809380840932135
98617.629307416806114
98625.745999122329522
98632.79572637595993
98633.880587162973825
98626.618081561828149
98612.462794271486928
98595.520967401738744
98580.106482250441331
98568.583493587750127
98560.537439643812831
98553.547865002678009
98544.901976618799381
98532.778377759605064
98516.645632787447539
98686.404695848323172
98682.073430965538137
98675.611241986596724
98667.872551560256397
98659.835064471670194
98652.564746023374028
98647.182012275108718
98644.706921968856477
98645.921915946761146
98651.157438667869428
98660.205159759774688
98672.338652155769523
98686.436345129695837
98701.084030012105359
98714.773081394159817
98726.206455090912641
98734.351502543810057
98738.892056137192412
98667.68172662203142
98644.87364520355186
98615.704005918072653
98586.47408717374492
98563.774063416596618
98551.743169014240266
98550.560626307385974
98556.695731463609263
98565.206541253268369
98572.218806847522501
98575.862350469498779
98576.274812935531372
98575.081687102385331
98574.772941780654946
98577.371600175218191
98583.214751927589532
98590.416678645182401
98595.324032077172888
98594.388981905896799
98586.311978477315279
98572.861767160327872
98557.728437571873656
98544.29495052168204
98533.907147874939255
98525.542282838170649
98517.056245177373057
98506.936311425990425
98495.196063239345676
98702.216260384797351
98692.231305573441205
98679.223498039136757
98665.000987503255601
98651.577241460501682
98640.82608317778795
98634.246608214802109
98632.822062758132233
98636.830425380001543
98645.819067065865966
98658.687837678255164
98673.970310353732202
98690.150077575468458
98705.788632288138615
98719.640187801545835
98730.783107515831944
98738.637350880206213
98743.142348478679196
98605.326342248939909
98577.929155087113031
98548.321168950686115
98522.214671795227332
98504.557930674505769
98497.045124183496227
98497.903425927448552
98503.497921015165048
98510.670595403149491
98517.996124099765439
98525.168172653779038
98532.272968950652285
98539.471492781973211
98546.559178433250054
98552.593673866431345
98555.825889595100307
98554.443851311618346
98547.556063859257847
98536.052678124964586
98522.376680057466729
98509.257077791902702
98498.345538281733752
98489.506914112324012
98481.432229975325754
98473.177355977692059
98465.168821954532177
98458.843797094494221
98708.889817704563029
98691.580851342805545
98673.665998279218911
98657.81649739194836
98646.361476948397467
98640.859628072750638
98641.832765792278224
98648.809661873849109
98660.562277834033011
98675.377106312502292
98691.266864501201781
98706.261242219174164
98718.837954869217356
98728.24405521589506
98734.419932382297702
98737.802516021809424
98739.099797085247701
98594.887237415852724
98574.309366619199864
98547.574423986166948
98518.563805181751377
98491.635904619499343
98469.957054769343813
98454.786717065871926
98446.097262669762131
98443.709779370969045
98447.564917059178697
98457.017576466678292
98470.365052845751052
98485.055865706337499
98498.399505877998308
98508.459557443769882
98513.893682932844968
98513.716219010122586
98507.506351130083203
98496.105699593448662
98481.575738993851701
98466.768716678372584
98454.158639690329437
98444.699736413880601
98437.762766386906151
98432.337541910994332
98428.392673481794191
98427.032907215572777
98716.261513344274135
98699.911162915013847
98686.54840496747056
98678.037781882085255
98675.48018648668949
98679.017033780022757
98687.658920146684977
98699.552025722849066
98712.490980087299249
98724.342954309264314
98733.47970007279946
98739.0668624479149
98741.118632548721507
98740.375043005420594
98737.970489825471304
98735.04724759538658
98579.19405798947264
98558.697509818928665
98532.96445211241371
98507.118333018268459
98483.758058710969635
98462.576684336119797
98442.746759087604005
98425.292456860493985
98413.407742974348366
98410.140901094273431
98415.934153300273465
98428.013561322979513
98442.066456870015827
98454.326068263559137
98462.967502933955984
98467.572280728098121
98467.870372597346432
98463.231777705732384
98453.318423696910031
98439.248048692345037
98423.732829656451941
98409.944450957293157
98400.039714253274724
98394.679327477133484
98393.629403408951475
98396.508255235225079
98403.11001621534524
98413.211147714668186
98739.790481630392605
98732.726323789800517
98729.621577214886202
98730.67153308656998
98735.360729603882646
98742.429808248096379
98750.069752749535837
98756.619320605968824
98760.866381478714175
98762.127802364964737
98760.351536527028657
98756.086150946153793
98750.227782549191033
98744.006119498764747
98738.561882284440799
98547.045832308765966
98524.489598211890552
98503.818426111218287
98485.917316465769545
98468.047482197842328
98447.737410723333596
98426.123224177441443
98407.785311191357323
98397.420933305445942
98396.314707075172919
98401.812047111132415
98409.493171746958978
98416.264349619843415
98421.300713953547529
98425.017126190272393
98427.16339231460006
98426.132176535858889
98420.053243352187565
98408.602095530368388
98393.797646162900492
98379.296527458122
98368.7279686791735
98364.431962371789268
98367.049730523896869
98375.865201449792949
98389.344231374750962
98405.322364165011095
98779.04435577437107
98781.091909495575237
98784.744142048584763
98788.878667231678264
98792.307536904030712
98794.162184336717473
98793.751580492724315
98790.827212512594997
98785.451330672964104
98778.218466144011472
98770.079469091302599
98761.939347805368016
98754.480664127113414
98748.187518639140762
98516.63576258593821
98503.651612656336511
98492.623698474882985
98479.783937519983738
98461.654396906451439
98439.319098485502764
98417.25506228915765
98400.222510458057513
98390.245716106888722
98385.79054451319098
98383.951780200048233
98383.111927100748289
98383.693303534062579
98386.588358011460514
98391.131377351019182
98394.4880163075577
98393.150389500471647
98385.368386757341796
98372.489888714088011
98358.370056128551369
98347.663314833451295
98344.025014156926773
98349.142765869677532
98362.412971347206621
98380.922530734169413
98400.324358787082019
98830.605086646741256
98835.809132132533705
98838.353743724495871
98837.647918316113646
98833.528632284884225
98826.271476245747181
98816.636434571351856
98805.730559353236458
98794.66318401513854
98784.376447645016015
98775.417388175512315
98768.180309643197688
98762.271313761142665
98501.29624034104927
98498.631227405800018
98492.217111058533192
98477.843631549752899
98457.006726493826136
98433.711929264420178
98412.095126014421112
98394.153327855456155
98379.760909647506196
98368.004910358562483
98359.042226622521412
98354.539944735093741
98355.845681431266712
98361.970496076843119
98369.071672450794722
98372.476358091997099
98369.131881759822136
98359.455096124496777
98347.080816468616831
98337.135227243416011
98334.131722548219841
98340.4803777399502
98355.627438498282572
98375.939489986747503
98395.506282729038503
98878.569219916942529
98879.077409956516931
98874.388169630983612
98865.175869671031251
98852.612447105173487
98838.211206369145657
98823.739063698390964
98810.690823632045067
98799.89910542544385
98791.577296353061683
98785.265898771438515
98779.903366303216899
98498.324319081148133
98497.937381694660871
98490.077506266112323
98472.724688607326243
98449.966398362448672
98426.321846621838631
98403.842939260473941
98382.718621539097512
98363.238033128742245
98347.142509988640086
98337.185180343294633
98335.396068787231343
98340.968210049293702
98350.021437319737743
98357.207479631033493
98358.526617435156368
98353.218361441569868
98343.999117403334822
98335.759108763391851
98333.370300219830824
98339.842307287603035
98354.703946235807962
98373.715011236054124
98390.381236689165235
98496.398120392332203
98493.447625766697456
98481.856736030182219
98462.870729325877619
98439.952008775086142
98416.371350261790212
98392.494177841974306
98368.874144059576793
98347.707084872745327
98332.597443834660226
98326.534804424853064
98329.622514635426342
98338.447233363098348
98347.545292986440472
98352.257172810102929
98350.859274871036178
98345.18344289191009
98339.484651133097941
98338.386236449528951
98344.604396170892869
98357.513528446928831
98372.920570759044494
98384.690994465781841
98483.652796180191217
98469.71836801583413
98451.148842814858654
98429.891004525547032
98407.190502121171448
98383.021587273629848
98359.299637738367892
98339.938321691952297
98328.899583358317614
98327.66669979422295
98333.937220803665696
98342.689888429056737
98348.929181350133149
98350.258929301155149
98347.744362316065235
98344.906933007863699
98345.623997866990976
98351.841859413223574
98362.442109066338162
98373.233621856925311
98378.923554746477748
98423.134150498706731
98401.788524600648088
98378.415156148243113
98356.508816271860269
98340.723371087573469
98334.027505103513249
98335.758912555553252
98341.885183354883338
98347.57179385436757
98349.951889584161108
98349.504539100453258
98349.122708668801351
98351.861767059774138
98358.617481463908916
98367.299611838927376
98373.71491500621778
98373.761852690266096
98359.615826924156863
98347.400985010506702
98343.394862564120558
98345.01193723148026
98348.059594620543066
98349.648377277364489
98349.83118944389571
98350.972110753180459
98355.275902289897203
98362.765313430660171
98370.347302398236934
98373.757717812026385
98369.657471899947268
98365.999008401486208
98356.234701130670146
98352.290685916843358
98350.917394703661557
98349.669874724713736
98348.750917019453482
98350.192328679899219
98355.497322362483828
98363.612193244538503
98370.786977130948799
98372.57873778771318
98366.234176821148139
98505.325089680147357
98488.801334443371161
98493.600815181140206
98515.380090471328003
98542.179086093019578
98561.484265484774369
98567.37736728398886
98563.249346456432249
98557.039181924206787
98554.49992626538733
98556.642390422726749
98561.438894088802044
98567.346093653235584
98574.837742688760045
98584.339566284528701
98593.824322137254057
98599.86578540012124
98599.268279033654835
98593.036435854199226
98584.509636209331802
98532.824840799090452
98492.011768001320888
98470.516361722809961
98472.683664237818448
98495.226246666017687
98525.320198208471993
98547.995522407261888
98555.364003035909263
98550.489644227636745
98543.192036403081147
98541.655742492090212
98547.89882064529229
98558.269604179862654
98568.383524947363185
98576.358655201125657
98583.647210087481653
98590.872586458586738
98597.204816804704024
98599.884191212404403
98597.299254887373536
98590.461188079745625
98581.773687011678703
98633.765945205363096
98579.469078677226207
98525.905385441612452
98480.816417797672329
98454.107546526996884
98453.748908142282744
98476.997442240550299
98510.334920934546972
98536.255283915845212
98545.129404950464959
98539.639657447492937
98531.261061258424888
98530.512314193678321
98540.362263548944611
98555.811610320306499
98569.576585711256485
98577.96512286325742
98582.907551688811509
98587.920814718905604
98594.40470538957743
98600.284972606546944
98601.388111044885591
98596.091188844744465
98585.857763672698638
98575.893516320749768
98572.932960603400716
98675.502832426922396
98630.372110195894493
98576.561887747302535
98520.309213818938588
98471.113808307156432
98440.281314096442657
98437.508534779364709
98461.308895220252452
98497.502351943257963
98526.526167766569415
98536.702422538131941
98530.684871808552998
98521.208504396432545
98521.057459690317046
98534.041172833647579
98553.968499953189166
98570.90829373167071
98579.568632054622867
98582.176539767824579
98585.032824807902216
98591.694403872999828
98600.50224780998542
98605.237714285336551
98601.292598900807207
98589.533449016758823
98576.390726277910289
98571.215952522063162
98579.720897175313439
98705.265500721565331
98670.621949284672155
98627.691343084239634
98574.970099085505353
98516.135412922274554
98462.786354644602397
98428.480960573040647
98423.574862238951027
98448.087728966449504
98486.95060150550853
98518.853753332106862
98530.203945980989374
98523.534013189128018
98512.922138613270363
98513.154745441686828
98528.889669190786663
98552.742032523587113
98572.379597968276357
98581.056418896885589
98581.512529380095657
98582.293591790090431
98589.247094617065159
98600.675875164204626
98608.729496288346127
98606.035959707034635
98592.710015786637086
98576.610416602590703
98569.366348849507631
98578.46670420076407
98600.938210241845809
98728.494646299703163
98700.46023314834747
98666.843939778889762
98625.93256761781231
98574.050463418971049
98513.33240045121056
98456.105951423945953
98418.365612338937353
98411.917726103027235
98437.330316545412643
98478.740612685956876
98513.191399788818671
98525.556861638848204
98518.038716405106243
98506.253577328185202
98506.692733539923211
98524.806352157596848
98551.991073484765366
98573.892067100256099
98582.410281052798382
98580.944109643969568
98579.874692828379921
98587.078487520950148
98600.865357951479382
98611.816154148444184
98610.259780488180695
98595.365410823331331
98576.538410044173361
98567.454261213875725
98577.139708823015098
98602.150057770981221
98628.983521485628444
98725.917992759932531
98696.823584461686551
98664.115215937228641
98624.791573332942789
98573.600309943692992
98511.471033993162564
98451.005006441584555
98410.250107877116534
98402.528703851538012
98428.946209030516911
98472.798490110653802
98509.398120286350604
98522.56480005409685
98514.110939304257045
98501.140992548738723
98501.666428661352256
98521.717430177624919
98551.648809060890926
98575.347668851274648
98583.611964304131106
98580.474952471995493
98577.911984234757256
98585.25867991927953
98601.103168331668712
98614.439950890402542
98613.821773107993067
98597.472263267482049
98576.20973293123825
98565.624345847012592
98575.803573239434627
98603.09157622505154
98632.173137151330593
98648.658110195785412
98978.16885752590315
99011.335140262541245
99018.447133945053793
99017.047408429294592
99014.152852054365212
99000.808675842985394
98724.282023730207584
98694.408582160074729
98662.346445973817026
98624.233616648300085
98573.50052121221961
98510.380372098617954
98447.482591018764651
98404.340506263935822
98395.879006678675069
98423.185999263238045
98469.062629224703414
98507.27471200277796
98520.919918341751327
98511.609152421937324
98497.544886408242746
98498.114624334324617
98519.581805574372993
98551.592460086612846
98576.549359853350325
98584.571712795994245
98580.111234236843302
98576.454863673672662
98583.940407496716944
98601.359044000637368
98616.462333821560605
98616.458303048508242
98598.955740043937112
98575.716997086594347
98564.062817073237966
98574.699097194185015
98603.73572837865504
98634.457360978398356
98651.499771229922771
98652.748609189118724
98911.127045224318863
98978.690910499048186
99011.839945515341242
99018.446162679290865
99016.433456069644308
99014.350597692624433
99002.273815649314201
98723.448148834344465
98693.181041936812107
98661.52354873380682
98623.964519863817259
98573.467952229621005
98509.818811884921161
98445.493301904498367
98400.947676980984397
98392.423948655647109
98420.390396216054796
98467.357330773535068
98506.491091866846546
98520.235032068099827
98510.361659993955982
98495.608916265715379
98496.286317506383057
98518.557210421247873
98551.706936764559941
98577.305623916254262
98585.158696293729008
98579.898469659819966
98575.669337756888126
98583.287543616374023
98601.568039983438211
98617.646759535738965
98617.882427223899867
98599.689965175566613
98575.240894109156216
98563.116457550087944
98574.143854414694943
98604.087863727036165
98635.747528913067072
98653.012978876795387
98653.738327883605962
98650.022745796697563
98620.369747295917477
98620.364816957488074
98622.091961187310517
98626.85612899599073
98635.141562073258683
98646.631842266418971
98660.208802556531737
98674.221555810639984
98686.850884957748349
98696.39157806042931
98701.88903314032359
98734.360093693350791
98744.991775730784866
98752.600000463411561
98756.106335925884196
98756.454369306113222
98755.45579993686988
98753.298180167723331
98748.514194226125255
98739.904648756375536
98728.709795065427897
98718.196228912638617
98711.115161512760096
98706.747422564614681
98701.076712070294889
98689.540192123924498
98671.113696715430706
98649.994655353104463
98634.165143078527763
98630.003068006000831
98638.634635011359933
98655.017881082429085
98670.856301545267343
98678.236822121994919
98673.162554659153102
98656.494395532557974
98632.486207480469602
98607.307452415014268
98587.19787554598588
98576.592309343366651
98576.852394141707919
98585.509626921222662
98597.359026345788152
98607.032217493804637
98611.1769296820421
98609.164067016390618
98602.423753378374386
98564.44701087748399
98578.772035403977497
98592.056762999694911
98603.960300370061304
98614.120465164451161
98622.130904655074119
98627.602057224416058
98630.413093216862762
98630.892972914953134
98629.759399325805134
98628.121919592013001
98627.350224967492977
98628.824159755720757
98633.69250774710963
98642.364627754010144
98654.407481206158991
98668.595909729119739
98683.20044429594418
98696.407882738596527
98706.495397400169168
98712.550337959590252
98757.032187287331908
98770.531406341135153
98772.939862616403843
98765.494573458490777
98753.203544331612648
98741.096790983603569
98731.043070159881609
98721.686932032345794
98710.26960694603622
98697.529629243479576
98686.515498835724429
98680.413347979192622
98679.750876426143805
98680.781302284885896
98678.408889239988639
98669.58803575442289
98655.607891113133519
98641.790983038765262
98634.072439884403138
98634.968423824757338
98642.448908228558139
98651.288258865533862
98655.471606651131879
98651.103140590523253
98637.423462409104104
98616.948917966175941
98594.7662584172067
98576.855566368292784
98568.128228869943996
98570.175269185070647
98580.18140946814674
98592.483807899392559
98601.334187939195544
98603.227166822718573
98598.081717466702685
98588.442801686600433
98603.835964330399293
98619.612219914532034
98631.88916149425495
98640.644986247483757
98646.128430036391364
98648.713803078047931
98648.859102667862317
98647.020491128525464
98643.854686446546111
98640.231496798311127
98637.227225075796014
98636.004274177015759
98637.585142583106062
98642.66759036797157
98651.412887967439019
98663.28779872666928
98677.065201150326175
98691.15105359480367
98703.894418099996983
98713.695112904242706
98719.785162794942153
98788.506779101924622
98783.165250328223919
98764.279176749580074
98740.213236526877154
98718.368430894406629
98702.286432142442209
98690.105138837941922
98678.560310850079986
98666.330736914882436
98656.024362814685446
98650.927485401873128
98652.814568605361274
98659.572995291469852
98665.875608270420344
98666.758956847974332
98660.459085629714536
98649.116461601093761
98637.330292625585571
98629.160085810843157
98626.331903505852097
98627.49799482243543
98629.096259968006052
98626.976098001556238
98618.173952194789308
98602.843314033321803
98584.632532580493717
98569.347724092949647
98562.258897578256438
98565.165966144384583
98575.348937520917389
98587.034087224834366
98594.236773594209808
98593.566548246497405
98585.43036007801129
98656.256158972391859
98668.048445065811393
98674.393880269839428
98676.119891551716137
98674.312730231511523
98670.098187052470166
98664.517364527564496
98658.54553384668543
98653.127632590592839
98649.191641835393966
98647.606199009489501
98649.045033160844469
98653.807578290317906
98661.760058097061119
98672.306460522915586
98684.364676283264998
98696.606997439870611
98707.740966740078875
98716.483366234315326
98722.25525438648765
98788.87156834162306
98776.064586151376716
98749.238387298377347
98718.046222926641349
98690.976570094411727
98671.851471934234723
98659.51308877656993
98650.055033376251231
98640.444481847167481
98631.399883408448659
98626.693692837448907
98628.734990961442236
98637.315728318324545
98648.599976483223145
98656.972110449758475
98658.09897959115915
98650.750043051535613
98637.361105099102133
98622.751267338957405
98611.685768071358325
98606.477437024237588
98605.891872559062904
98605.603394541656598
98600.956661338015692
98590.293084452889161
98576.134719326015329
98563.659281318439753
98557.763222090972704
98560.291515048069414
98568.807616761652753
98577.959227862927946
98582.454253680625698
98579.545584895284264
98569.873153035121504
98683.681914433531347
98696.030230870674131
98701.617931101893191
98701.484097761378507
98697.102204803086352
98690.083157678105636
98681.940970520314295
98673.947208241341286
98667.137154831725638
98662.269933013667469
98659.877440086711431
98660.267342840044876
98663.510985865010298
98669.324330955991172
98677.143544331163866
98686.150938488644897
98695.405772564627114
98704.073324791068444
98711.241370003001066
98716.586162305538892
98750.034757491914206
98721.445217473490629
98689.730377924046479
98663.022835136711365
98644.991163788130507
98634.580474916132516
98627.714653655042639
98620.978200295343413
98613.611026931248489
98607.815764908635174
98607.622039708934608
98614.428465245102416
98625.935904455051059
98637.59218695157324
98644.463539624252007
98642.631392048555426
98632.084759345045313
98616.820270385651384
98602.53605042208801
98593.46631736899144
98590.106557531020371
98589.151094219778315
98586.204000808094861
98578.839808368429658
98568.158574110639165
98557.8983918211743
98551.945673184120096
98551.925420448169461
98556.281851712614298
98561.360146351260482
98563.354159281458124
98560.018812099457136
98714.442190688481787
98721.26799878719612
98721.884343629571958
98717.638554051722167
98710.12094221523148
98700.944529601969407
98691.54650362105167
98683.008862613947713
98676.105182021303335
98671.331492278433871
98668.927759667843929
98668.887314377381699
98670.945767908269772