/*--------------------------------*- C++ -*----------------------------------*\
  =========                 |
  \\      /  F ield         | OpenFOAM: The Open Source CFD Toolbox
   \\    /   O peration     | Website:  https://openfoam.org
    \\  /    A nd           | Version:  12
     \\/     M anipulation  |
\*---------------------------------------------------------------------------*/
FoamFile
{
    format      ascii;
    class       volScalarField;
    location    "0.00519";
    object      rho;
}
// * * * * * * * * * * * * * * * * * * * * * * * * * * * * * * * * * * * * * //

dimensions      [1 -3 0 0 0 0 0];

internalField   nonuniform List<scalar> 
106891
(
1.147681032478734986
1.147730978478987085
1.1477513629502316128
1.1477445465517226442
1.1477143214980283226
1.147667436236987637
1.1476198422511871833
1.1475721588280891616
1.1475489152808950877
1.1475394830383669476
1.1475626816822537268
1.1487279563847820896
1.1486574887150315938
1.148593057366823933
1.1485662196487167463
1.1485844966493918839
1.1486179158734077799
1.1486109839000695487
1.1485164072012645775
1.1483264767473200241
1.1480905210713618914
1.1478900884967901952
1.1477927452038336753
1.1478161632265067027
1.1479201765015276671
1.148037904814328547
1.1481205601366324398
1.148160623376671241
1.1481819027491217966
1.1482057876253239925
1.1482269894774070895
1.1482127504182502165
1.1481286152600715944
1.1479660248346226226
1.1477522357729197378
1.1475355580026362912
1.1473594411908152324
1.1472448947991311652
1.1471904127815888419
1.1471824822260137111
1.1472039650399239452
1.1472364827715484381
1.1472593895031863998
1.1472529387506353871
1.147208430907078025
1.1471375386660453977
1.14706996388023863
1.1470350015312253955
1.1470370912873342206
1.1470588406622828082
1.1471316241123548085
1.1472050161963049941
1.1472847606683977961
1.1473739282278472285
1.1474718035165578645
1.1475748636401508218
1.1476755391334565459
1.1477659266051245535
1.1478356549797379405
1.1478796993228581602
1.1478929459745328412
1.1478782106124996165
1.1478392979254101736
1.1477822500752061785
1.1477214186223159142
1.1476566838096298184
1.147613008594944306
1.1475805715007376673
1.1475799836620039773
1.1484873822908814311
1.1484652500321157476
1.1484896121317165196
1.1485493851611232596
1.1486037998193601162
1.1485957651323681628
1.1484827217877640049
1.1482695415509363013
1.1480183097745315646
1.1478171470702227541
1.1477346361719316103
1.1477815812129579243
1.1479076144100952561
1.1480385929531982114
1.1481240192965336266
1.1481599261390573741
1.1481766146628300529
1.1482031119438511624
1.148238362099277543
1.1482490003259320233
1.148193552376763682
1.1480533371670271769
1.1478477164120639564
1.1476215523734201174
1.1474207558959133024
1.1472749082021671541
1.1471930920032549217
1.1471685590024740531
1.1471870989369150617
1.1472309168541028335
1.1472740286932088249
1.1472835265414791373
1.1472351155977311699
1.1471319691598516055
1.1470074530476348507
1.1469043592023593359
1.1471729090638140836
1.1472416689480253726
1.147313693561726744
1.147394974867232964
1.1474873572965182955
1.147587853658169621
1.1476896485017722416
1.1477840208638783182
1.1478636464826517116
1.1479210117602900443
1.1479540305129225519
1.1479602115827907127
1.1479429971730790161
1.1479056866129135894
1.1478522602218046433
1.1477941574018701854
1.1477285269555785874
1.1476784015420780083
1.1476339179914603061
1.1476160583862038411
1.1482811817564850809
1.1483301341631819703
1.148417679212892839
1.1485092669548444544
1.1485609057278183265
1.1485291353307569562
1.1483932025277066025
1.1481729235429547487
1.1479348790069434649
1.1477555488153585728
1.1476941229999118033
1.1477534603716081918
1.1478793620778002804
1.1480026026868592748
1.1480775032485657228
1.1481033871723338446
1.1481117627055776875
1.1481336322079407353
1.148173069897453491
1.1482018117125414314
1.1481767213448237364
1.1480712330181601644
1.147892671795319508
1.1476770389897992253
1.147469840593887902
1.1473058416076966637
1.1472017000543399678
1.1471587041365154391
1.1471681261661399454
1.1472115679237648855
1.1472583522323018812
1.1472684601708540431
1.1472080494709286924
1.1470709104590299798
1.146888093402752995
1.1467121708983103456
1.1473376689758387759
1.1474030265425210207
1.1474790524944762371
1.1475656179080566677
1.14765785302858081
1.1477479793749285619
1.1478269982593209964
1.1478888596336593864
1.1479289214690391319
1.1479486110155074918
1.1479487499826293018
1.1479343442310465662
1.1479085596568632255
1.1478728858106943544
1.1478344679935399419
1.1477862174156010511
1.1477465488722669029
1.1477040749140285936
1.1476783426577785718
1.1481876073772219193
1.1483399210743374663
1.1484503848347891175
1.1484768794948994053
1.1484025758008744589
1.1482384517281740699
1.1480258594943468786
1.1478236739330858196
1.1476913638074224266
1.1476579398178090585
1.1477154820357819975
1.1478210451367014677
1.1479174799042475286
1.1479701676137461508
1.1479804174940955175
1.1479751908101230029
1.1479837311473923833
1.1480154428223898755
1.1480517138934764887
1.14805623286924674
1.1479969221167365401
1.1478661354464152478
1.1476856430627087047
1.1474937495347914407
1.1473266984502217269
1.1472078347817349364
1.1471458239302925186
1.147135706746655881
1.1471598389540835772
1.1471882267257107468
1.1471815718866409384
1.1471027222953904534
1.1469371478851717594
1.1467083475993145036
1.1473873188949066382
1.1474333471496662717
1.1474860878412747045
1.1475494317235801489
1.1476208787213502127
1.1476935342510214966
1.1477594327124440721
1.1478109826798945647
1.147845469468254942
1.1478625083780873428
1.1478677999421043054
1.1478652604094763401
1.1478608952201589943
1.1478569986928017777
1.1478519151194364056
1.1478478897250561364
1.1478333690644715315
1.147821265171109717
1.1477970414698386303
1.1477767114176926633
1.1480551141154584638
1.1482561971113318666
1.148371352985558147
1.1483622239615025595
1.1482350995916767999
1.1480356755408440694
1.1478271840588689656
1.1476645232493558613
1.1475806606329099768
1.1475780032150757481
1.1476321622650138554
1.1477073083351834182
1.1477688741215623658
1.147794897224881483
1.1477865610737152391
1.1477638384232673463
1.1477520757960248954
1.147766980190487951
1.1478036572112404468
1.1478366854537898067
1.1478313027602242702
1.1477631546047022404
1.1476342429743358053
1.1474713278963932783
1.1473108000824507879
1.1471824244817268035
1.1471007319425781112
1.1470638284790963812
1.1470560628900698941
1.1470508853919896275
1.1470142255748374538
1.1469121649599733903
1.14672763119043708
1.1475363607818742651
1.1475732403219853772
1.1476146669099205333
1.1476585226435873643
1.1476988250290915961
1.1477295653838648359
1.1477462631319048647
1.147750382356320431
1.147745505936159871
1.1477405873297976679
1.1477418708587907581
1.147755502797803695
1.147781955735247994
1.147816450206209149
1.1478565352022853663
1.1478865818852794778
1.1479130845206715339
1.1479191981226841701
1.1479163928363496083
1.1481209683230129137
1.1482265218159064535
1.1481847454378615314
1.1480174301577337204
1.147787678066828132
1.1475704503669981182
1.1474228353814284187
1.147366758757643268
1.1473871920564502336
1.1474477476692885869
1.1475102645401873414
1.1475492649777010445
1.1475557733323511478
1.14753303329510703
1.1474945878712088376
1.1474634469011011362
1.1474617229229231441
1.1474972326672374656
1.1475536681358551316
1.1475943347945338768
1.1475821458066222114
1.1475013996148974993
1.1473668425907659341
1.1472154881183869168
1.1470829528963126798
1.1469871799201578622
1.1469276088117552614
1.1468894455396956289
1.1468480802455678358
1.1467759803576398348
1.1466501699861373353
1.1464632511842305362
1.1476441689635572541
1.1476606448245874059
1.1476696464973175082
1.1476715677792339587
1.1476653280748474462
1.1476507007783882663
1.1476290135411852944
1.1476057445303236015
1.1475873768139768227
1.1475833824843142406
1.1475996653926949786
1.1476404400747113321
1.1477038044959568808
1.1477820542924399572
1.1478690412320970982
1.147946502191906859
1.1480150518215144206
1.1480557944699500972
1.1480763906213824477
1.1480102807820080635
1.1479372635254549984
1.147748454649921479
1.1475018275683082081
1.1472689089650311978
1.1471081109041696422
1.1470431263523757082
1.1470607917131347975
1.1471247466048366537
1.1471934251744393407
1.1472371651408566073
1.1472449881157196216
1.1472212433538928611
1.1471814652725911277
1.1471481597826067578
1.1471449733784826464
1.1471837191143061663
1.1472513240793698053
1.1473120794107025677
1.1473248276642562526
1.1472682558972933098
1.1471527316183707246
1.1470114873534513755
1.1468808187992054481
1.1467819433525863193
1.1467132104727508768
1.1466555188057230286
1.1465860914534695691
1.1464886800701772351
1.1463576087513456248
1.147759457031105379
1.1477252087118292589
1.1476732358486614327
1.1476103441511009695
1.147544708774427491
1.1474845890396974113
1.1474398729720192147
1.147418147080403461
1.1474270464898674859
1.1474687197711996856
1.1475422721730963449
1.1476421094845665749
1.1477577008156456539
1.1478807535868680301
1.1479929153430730171
1.1480915362742194485
1.1481582473725200355
1.1481977712108315526
1.147609300408948263
1.1474221530267181279
1.1471802346717541177
1.1469352688946508056
1.1467425801024102583
1.1466382534219992095
1.146625709383231273
1.1466765590338152681
1.1467491199033190696
1.1468096100590234876
1.14684107888522413
1.1468441111552734046
1.1468324981680417807
1.1468277624221714373
1.1468477396133456292
1.146895949003312376
1.1469571462286403118
1.147000866137680708
1.1469968545615940592
1.1469330616520614363
1.146822988745753058
1.1466968991116073262
1.1465835598802047723
1.1464954223988410575
1.146425101772134747
1.1463551059897183482
1.1462723404605137389
1.1461760739366251283
1.1478921246476598839
1.1478116190774541039
1.1477055245052532051
1.1475885104837972861
1.1474774296749767899
1.1473874815813192019
1.1473318430319108252
1.1473181537552237241
1.1473498177208361071
1.1474227355862176569
1.1475282560377426666
1.1476546660286681689
1.1477880340216743971
1.1479191990756785202
1.14803318498111806
1.1481284107226750191
1.148192820625763888
1.1482321072965815389
1.1470980807221091702
1.1468710549590008796
1.1466235325091567177
1.1464027841081709802
1.1462510642055947496
1.146184362603169582
1.1461892515170450935
1.1462354803519361202
1.1462956167354061421
1.1463565073273571659
1.1464151893074132627
1.146472824957922354
1.1465316793945641294
1.1465908929717685272
1.1466429637315400658
1.1466730978436991961
1.1466654964519527038
1.1466117652626814927
1.1465183423109666094
1.1464052495322016867
1.146295524567230828
1.146203693018610581
1.1461293639201006744
1.1460618464903311597
1.1459928978825439927
1.1459255338781608735
1.1458716437939870936
1.1479524676854211407
1.1478103247908741924
1.1476618265270319696
1.1475294289584807572
1.1474324333693122213
1.1473846844788431198
1.1473903853360567506
1.1474465561599616059
1.1475428043879305484
1.1476650447085208206
1.1477973097947105074
1.1479218381998452791
1.1480279902207739529
1.1481059966264239858
1.1481591310927348193
1.1481864294504964263
1.1481985876138236513
1.1470061045461612537
1.1468381227277124612
1.1466182269524440862
1.1463774985994135136
1.1461519130613386785
1.1459685514540918216
1.1458390636701520915
1.1457640496680543407
1.1457420969645371045
1.1457723907902490623
1.1458493865324430594
1.1459590567261206395
1.1460806717875666738
1.1461923253049330906
1.1462781207668113481
1.1463268311664938093
1.1463297241338152865
1.1462823416746261707
1.1461906010698539315
1.146071021338037399
1.1459472671427965995
1.1458406352091827785
1.1457600610068734426
1.1457009587530240236
1.145654811678155971
1.1456206942736386623
1.1456074426587525839
1.1480155689808066999
1.1478790598877792739
1.1477664409232946063
1.1476933360005736606
1.1476696733686420071
1.1476967034820657609
1.1477669708114264235
1.1478651090756719633
1.1479726398507825724
1.1480722787023782683
1.1481490094881248165
1.1481971968294646391
1.1482146824099552784
1.1482093198674732104
1.1481886211610221604
1.1481651428335839515
1.1468804845017026572
1.1467116401458778974
1.1464984874342492027
1.1462830055777173399
1.1460873005689684589
1.1459095606424642977
1.1457431081258504513
1.1455961016315150403
1.1454947685781715627
1.1454646692671179853
1.1455101952426476331
1.145609034027702533
1.1457257086435996829
1.1458288057488270617
1.1459028891599862821
1.1459443183394240062
1.1459507086837064094
1.1459163341420819382
1.1458374206545032248
1.1457221710870832965
1.1455925583193664608
1.145475407237568799
1.145389754796449111
1.1453421466095892178
1.145331093937908884
1.1453533500824790714
1.1454069179025905267
1.1454898443138741282
1.1482074773171271342
1.1481471021343718775
1.148119179712319804
1.148126058355835255
1.1481635146491080413
1.1482215566538775953
1.1482852422326315089
1.148340248726459345
1.1483769144661541972
1.1483882770214146607
1.1483748250123844148
1.1483399352413421468
1.1482912634690283227
1.148239065700584538
1.1481942829997107136
1.1466174959851229698
1.1464303150908261575
1.1462573114471172886
1.1461071283616282024
1.14595791837085903
1.1457889470822550937
1.14560866882948309
1.1454543674674901865
1.1453653549733602279
1.1453533704100882229
1.1453972322081955593
1.1454603936169480694
1.145516739707489462
1.145559125641611331
1.145591211464725756
1.1456113938444143496
1.1456063461468839471
1.14555968109904871
1.1454672709415172349
1.1453447713888487147
1.1452224210884145439
1.1451312029575804186
1.1450917889868270638
1.1451105050232077698
1.145181807673255836
1.1452928995725806249
1.1454257246230086231
1.1485283391774909756
1.1485442286647862264
1.1485738541927605905
1.1486079620717379868
1.148636620088140825
1.1486526615039085453
1.1486498022948301578
1.14862657842721827
1.148582464029132888
1.148522950881467386
1.1484555983962563275
1.1483872781870325674
1.1483252118865892033
1.1482734600458279761
1.1463635684713704421
1.1462538715194146022
1.1461609633932536845
1.1460543262071323234
1.1459045886854721807
1.1457196015906490061
1.1455357793379117304
1.145392652375280873
1.1453077658352561752
1.1452690481498004615
1.1452522949137431407
1.145243656096520235
1.1452466308433781883
1.1452693728770537707
1.1453074218545105101
1.1453377127391617396
1.1453303888037646985
1.1452693127328550382
1.1451641797534835021
1.1450463868485447616
1.144955102627142729
1.1449217935416864389
1.1449615393817156317
1.1450700427885498467
1.1452234380656385326
1.1453856635663652863
1.1489535744384899996
1.1489974098673383374
1.1490194670121760545
1.1490145579363180151
1.148981266049359018
1.1489215172398357101
1.1488420245744066506
1.1487512510690949252
1.1486589179590322995
1.1485734254803330323
1.1484977446005011359
1.1484378009638713802
1.1483894730110608684
1.1462328161219526024
1.1462093830787849491
1.1461568650390800972
1.1460392721134584626
1.1458678505535206948
1.1456751596186698361
1.1454955774264166113
1.1453458745003630703
1.1452250854713201811
1.1451253983244047419
1.1450478031535529233
1.1450064237811714563
1.145013641211598765
1.1450627905372470217
1.1451227570821209678
1.1451542118554751681
1.1451302384019719227
1.1450526072108517806
1.1449506252728902655
1.144867060083071042
1.1448402117105684894
1.14489102452333813
1.1450156872947070408
1.1451845821804531589
1.1453487452567190363
1.1493523636830926815
1.1493586778872793008
1.1493213066166132474
1.149246116288388686
1.149141931250176496
1.1490221512366169954
1.1489009967180681127
1.1487913642286238236
1.1487012737942019491
1.1486305227284558939
1.1485786786948872784
1.1485351293799783701
1.1462033518583683023
1.1462009814658993267
1.1461381150727114608
1.1459967901194885176
1.1458096790895733186
1.1456144565098862476
1.1454284039935853645
1.1452528792702281191
1.1450896296246357853
1.1449526393258708801
1.1448651514088801218
1.1448453647862890659
1.1448882862550646689
1.1449627990752049289
1.1450243000859765541
1.1450382974654365054
1.1449969517657618834
1.144921851598307283
1.1448534760823534384
1.1448328158289871048
1.1448856012664645476
1.1450087739326744174
1.1451676963114509888
1.1453084740737558
1.1461872149416147959
1.1461650597466430668
1.1460714017292024103
1.1459162716668660487
1.1457276892389209877
1.1455332171861869472
1.1453359005668952708
1.1451395436062028477
1.1449616141447203077
1.144832043758771345
1.1447767798213854817
1.144798372890487359
1.1448697521244124431
1.1449456971171461106
1.1449865884576722053
1.1449768308481147461
1.144930739827338062
1.1448834655828368234
1.1448738200320669467
1.1449250854885026918
1.1450327676650922104
1.1451624995028413245
1.1452632256667079069
1.1460821086455648121
1.1459683697077185371
1.1458159707034243358
1.1456411828270356423
1.1454545113088783204
1.1452551740085847864
1.1450579939467788737
1.1448949485245165647
1.1447995403999866593
1.1447855300580673799
1.144835191085914694
1.1449072841373235665
1.1449597253324610424
1.1449715582011805726
1.144950855371042131
1.144926777311716215
1.1449320294733595915
1.1449835142532862609
1.1450725806115493732
1.1451646804641382182
1.1452154120283497551
1.1455846010983548044
1.1454100164438851817
1.1452175806977480388
1.1450353058933104844
1.1449018774606327664
1.1448430259225279571
1.1448546375338064518
1.1449039822161650726
1.1449506971309617587
1.1449701376085230642
1.144965626787098012
1.1449611688695635614
1.144982799436560672
1.1450388268534645864
1.1451124077448031624
1.1451685742150810032
1.1451725507381471658
1.1450608519317688749
1.1449568309658968435
1.1449206001424381274
1.144931671142353613
1.1449553760540522873
1.1449671865979813568
1.1449670288386475381
1.1449746474463504686
1.1450090728608337542
1.1450713938301135819
1.1451363150502935628
1.1451679659043034754
1.1451376127406591721
1.1451145576700536566
1.1450303950601563585
1.1449946103142116804
1.1449805839743090186
1.1449677457909515077
1.1449574698587394739
1.1449669695421167415
1.1450095597723444207
1.1450773375954756972
1.1451392928910830715
1.1451578384808989153
1.1451088505491628933
1.1447793320189214583
1.1452597339160850431
1.1457944311803112125
1.1463592005906222404
1.1468717369562078101
1.1472449335393282155
1.1474441706762301685
1.1475104688291113408
1.1475220626342779173
1.1475382863948782042
1.1475769771481389991
1.1476279270997542525
1.1476828011443922506
1.1477489392505622057
1.147834148888070338
1.1479251211170269364
1.1479952339351833235
1.1480160809592820925
1.1479907955191690494
1.1479410374235727854
1.1438333527252690924
1.1442961599845815623
1.1448060453482999943
1.1453912359292812706
1.1460288810580454566
1.1466250506539696907
1.147069556261736567
1.147311433168834105
1.1473909877670163127
1.1474057680290190575
1.1474390982027957708
1.1475201808565165251
1.1476259343685706327
1.1477229370305781497
1.1477965018458460289
1.1478610023879092239
1.1479259632234859456
1.14798926391748779
1.1480308784204382722
1.1480360198055163945
1.1480083003465197944
1.147960498934725404
1.142613148337784823
1.1430335640382291995
1.1434428839016521628
1.1438621954351524401
1.1443437922445671706
1.1449395736932159728
1.1456258475641500905
1.1462969279029759928
1.1468174141090359264
1.1471183442457777435
1.1472344463790711266
1.1472750738205266252
1.1473420197688586342
1.1474722404628123762
1.1476321225389587433
1.1477648979109540406
1.147841975009528781
1.1478825835889485685
1.1479221177632437101
1.14797899393255598
1.1480413059112093421
1.148075094715513611
1.1480627065470787596
1.1480088590484429645
1.1479477324395237492
1.1479282227028104746
1.1421136646962295469
1.1425446253233744187
1.1429448359793454859
1.1433108053556173545
1.1436780570883104957
1.1441100814489946202
1.1446727291408274052
1.1453521539398019424
1.146037082311242461
1.1465748654917966576
1.146879203846540296
1.1469845826066351613
1.1470111767271735648
1.1470804224664443716
1.1472369226955427823
1.1474374843975119198
1.1476023859129482751
1.1476878672460224529
1.1477136111398564822
1.1477364573147643689
1.1477926022286315533
1.1478742897247149468
1.1479323251255646454
1.147925633481796881
1.1478550679933543499
1.1477657598453556709
1.1477284981009514553
1.147787832421709231
1.1437144167753989787
1.1441082855883357716
1.1444134603331512778
1.1445860885259866446
1.1446330440833980546
1.1446377364553634859
1.1447117430554152318
1.1449480446297883862
1.1453603747178882077
1.1458390541134451102
1.1462194159663083859
1.1463963690946199492
1.1463963449073362177
1.1463417682468508563
1.146362022182315199
1.1465025245373337004
1.1467068635755828243
1.1468744800182439914
1.1469493178528302746
1.1469543808188822354
1.1469623386381091468
1.1470244197961783073
1.1471276894935964474
1.1472053856479826894
1.1471913884929487715
1.147080839871454927
1.14693499496774165
1.1468500602721620751
1.1468927645903594925
1.1470459706759914553
1.146293097428485952
1.146231767816715319
1.1460962545194024464
1.1458756043195224006
1.145541119791070539
1.1451095169166138898
1.1446834153870435458
1.1443992572333665514
1.1443614572906031235
1.1445825664234008379
1.1449376721160198223
1.145237105961105728
1.1453512629726534389
1.1452926734272030895
1.1451884637864393479
1.1451777488389074389
1.1453113104900776165
1.1455227144961663832
1.1456943652098379172
1.1457569991284690669
1.1457360667030909163
1.1457165948843925918
1.1457653703612173945
1.1458705299720737258
1.1459547155318179357
1.1459360195222505485
1.1458041802218574823
1.1456351524334713599
1.1455427511759619374
1.1456051581024331298
1.1457981094197680072
1.1460114888472199279
1.1458301683076537181
1.1455972643930918409
1.1453338942723729765
1.1450160805762898963
1.1445976098800547671
1.1440818593642201328
1.1435703551039948511
1.1432148435051783242
1.1431303988570613583
1.1433318936467025129
1.1436849655996124131
1.1439837927622584779
1.1440896522067132146
1.1440124411294301243
1.1438922431083005105
1.1438808570701572975
1.144032589418347845
1.1442703095293413895
1.1444595329003091067
1.1445204196129286078
1.1444833524934399094
1.1444475744008557605
1.1444932259760554061
1.1446121092930661156
1.1447145162223950621
1.1447041035824414568
1.1445621993622605572
1.1443755132429600518
1.1442731296561812204
1.1443414111332206318
1.144554271745108931
1.1447868968783698751
1.1449181495380647
1.1437751626985190878
1.1441627441003194843
1.1443203857899049147
1.1444003474751349714
1.1444696675901673277
1.1444600252932357609
1.1444546830926083381
1.1442039684827673973
1.1439369448487031189
1.1436218567133202839
1.1432019246862061834
1.1426752888528939334
1.1421441192007342202
1.1417715031263129255
1.1416851646360159922
1.1418988011809068084
1.1422731868037374614
1.142589819445286814
1.1427043981119520133
1.1426255648448100377
1.142501808047308387
1.1424955996934447189
1.1426628321811251876
1.1429214827979630176
1.1431262365621930321
1.1431925712874064782
1.1431539244769941543
1.1431190674485054437
1.1431749655988285852
1.1433147300337076491
1.1434389448777013687
1.1434407805246913359
1.1432969755253610256
1.1431016554089377113
1.1429980974909290659
1.1430776448615609375
1.1433124501121734173
1.1435664732964549994
1.1437104877046742057
1.1437225786326203902
1.1439271161443740343
1.1445267440073760845
1.1448436300460256287
1.1449367118838011947
1.1449527722400700824
1.1449659214849621236
1.1448997675579573041
1.1430407713475230214
1.1427916257440851044
1.1425332356254043198
1.1422280711682271104
1.1418156249770099464
1.1412912465660500771
1.1407561712534124432
1.1403806829256881716
1.1403023442837283419
1.1405287589219035294
1.140917113374224412
1.141244448762935626
1.141362144097336051
1.1412817517330660078
1.1411571825550195225
1.1411587201246891077
1.1413405626934056691
1.141616102238163899
1.1418319311667102234
1.1419005561535160442
1.1418576728382761054
1.1418202850752634525
1.1418803717212004933
1.1420311726593019852
1.1421676399584999029
1.1421750632545712989
1.1420284836827172548
1.1418256203403212012
1.1417206178486685175
1.141806177235138664
1.1420510713649965062
1.1423149011314053247
1.1424623169092664732
1.1424716527911047415
1.1424404847220170911
1.147216971999686308
1.1472160140180238663
1.147227288731724304
1.1472637355014374538
1.1473294221467229548
1.147420390692196035
1.1475336776192430754
1.1476460803040369196
1.1477556503396360021
1.1478332150949521751
1.1478834301375799853
1.1481868924515661323
1.1482668619933045218
1.1483242011387528869
1.1483493040585419642
1.1483492118268696647
1.148338629876878958
1.1483192448830519261
1.1482789336336884922
1.1482072707977133419
1.1481136826345237356
1.1480250677625585265
1.1479647891872011289
1.1479280824038651243
1.1478822807336432898
1.1477889818902642372
1.1476380369931944436
1.147462410509656916
1.1473277702818929225
1.1472882501110852616
1.147355407662101312
1.1474893637190977103
1.147622066821575304
1.1476872901744894495
1.1476502821101837171
1.1475165607021700076
1.1473201858594461733
1.1471115788138193103
1.1469425193044555655
1.1468506286040431874
1.146848721864343279
1.1469179819079469151
1.1470160796543100723
1.1470980483526134197
1.147134756577221415
1.1471196622973907076
1.1470640080380809511
1.1467465805165568682
1.1468647178572857204
1.1469747499961160386
1.1470739695551774862
1.1471593935752388838
1.1472275289842361889
1.14727479219806483
1.1473001334961523412
1.1473052995719705827
1.1472967664953228617
1.1472821365061989241
1.1472743911529701411
1.1472833474077306359
1.1473206101886876951
1.147389557268966076
1.1474853346561495471
1.1476038303874132041
1.1477209767496994175
1.1478355153364117047
1.1479175725420425191
1.1479715324602093318
1.1483625610058916244
1.1484699500040007614
1.1484877949986289636
1.1484247652548478236
1.1483211770507892879
1.1482187901790334994
1.1481337150837964689
1.1480553707280705122
1.1479605789854487874
1.1478543693254454894
1.1477618044903565853
1.1477095383898443526
1.1477031310609107084
1.1477124210889537714
1.147694755201289496
1.1476235965406917927
1.147507999979976212
1.1473912982874285849
1.1473233900359740556
1.1473269402326573552
1.1473867866096942869
1.1474605422028429924
1.1474981503930288262
1.1474662911685238331
1.1473573495213189588
1.1471907514164871866
1.1470075761303470951
1.1468570365587629212
1.1467805175135905582
1.1467929245578161179
1.1468728008964126364
1.1469741679261107326
1.1470490313128323123
1.1470669540854423474
1.147025790946198498
1.1469459939918902336
1.1470719332330645557
1.1472038823592873857
1.1473071177124429809
1.1473813419871670138
1.1474285283259246793
1.147451672705097625
1.1474543111110089288
1.1474403301862230453
1.1474143929444118317
1.1473844576638203563
1.1473580529158815544
1.1473463583535079557
1.1473563204555068396
1.1473956307128414522
1.147465476858084088
1.1475602741455390721
1.1476755662240314404
1.1477883422736081531
1.1478989947421749385
1.1479783932002958213
1.1480315524351014655
1.1486216720628783516
1.1485761064363957384
1.148418170133620464
1.1482163036459442917
1.1480320785877875522
1.1478959790226126447
1.14779350285197701
1.147697381427986274
1.1475956152708932656
1.14750897397381868
1.1474647420118548879
1.1474783947743123491
1.1475335590764552673
1.1475863932759822195
1.1475950074668668233
1.1475436351956731507
1.1474491409962137567
1.1473496511819369914
1.1472796278935957215
1.1472544284021672922
1.1472638033374997768
1.1472786490946924598
1.1472644309718353917
1.1471956927653075287
1.1470721709433999713
1.1469225520888370884
1.1467941601855182743
1.1467312398458415768
1.1467505236347166342
1.1468315193683467079
1.1469275602803281622
1.1469888087085973183
1.1469857883569545276
1.1469202975591810123
1.1475080505083112836
1.1476086933121409928
1.1476639851551888594
1.1476805482497043354
1.147667288274428099
1.1476333576774928602
1.1475876768492874191
1.1475377433762912194
1.1474922969008420903
1.1474578496836773667
1.1474431310532133832
1.1474522827971080918
1.1474894819635985677
1.1475533088047746855
1.1476376573076516596
1.1477388618035635481
1.1478362852937504801
1.1479332412079488179
1.1480033932366693339
1.1480527101246822408
1.1486230251579570005
1.1485170347848681072
1.1482943401910594705
1.1480342086048265227
1.1478072542848138937
1.1476462411256345142
1.1475424450485292027
1.1474636280568171198
1.147383820619892969
1.1473076211498645094
1.1472659763286687795
1.1472795737806509297
1.1473476167045990604
1.1474394576764255227
1.1475088223907590201
1.1475193721913825584
1.1474600579234919273
1.147350160687860221
1.147229089058025453
1.1471364714432932264
1.1470922631247901791
1.1470873883089403034
1.1470868503837001739
1.1470517486839841848
1.1469668408833380013
1.1468512467635809671
1.1467468965840217354
1.1466946980222760821
1.1467115045063982492
1.1467791055482892126
1.1468543247172107158
1.1468931257957262204
1.1468715348662248399
1.1467934059541173841
1.1477350389365470473
1.1478411728336663788
1.1478908705339314622
1.1478924327295121355
1.1478579468225917903
1.1478006349750198289
1.1477334341410154739
1.1476664721905838196
1.1476093098944502024
1.1475672447731741777
1.1475461301422154037
1.1475471909519578961
1.1475724474752697635
1.1476191710981951122
1.1476815212686732881
1.1477575178555614599
1.1478301681069669193
1.1479060772261775458
1.1479626870131967031
1.1480073694514296712
1.1483035154154328517
1.1480656374423052757
1.1478005462130251857
1.1475759498032185313
1.1474233090191299222
1.1473348330331452072
1.1472769952394084036
1.1472207044992879243
1.1471586600109417997
1.1471080951610914678
1.1471024504729858684
1.1471546988945879875
1.1472471029834645506
1.1473427631225745493
1.1474011984733041292
1.1473893135566710644
1.1473053813606048923
1.147180958282653318
1.1470626062674920131
1.1469860076744298194
1.1469568248200292526
1.1469491441403585341
1.1469268958729457175
1.1468690207417056026
1.1467829792612302953
1.1466984715419605845
1.1466475566913667539
1.1466447520600573373
1.1466786680584923896
1.1467200439312386084
1.1467374371762679708
1.1467114953284975876
1.1479924640281948811
1.1480526162623225783
1.1480605930287721694
1.1480274470120037655
1.1479662413345790295
1.1478907151132935471
1.1478124188301093156
1.1477413110248964045
1.1476829004201012374
1.1476425917891417416
1.1476212031944834635
1.1476198420517942367
1.1476359677325949082
1.1476649993726422139