/*--------------------------------*- C++ -*----------------------------------*\
  =========                 |
  \\      /  F ield         | OpenFOAM: The Open Source CFD Toolbox
   \\    /   O peration     | Website:  https://openfoam.org
    \\  /    A nd           | Version:  12
     \\/     M anipulation  |
\*---------------------------------------------------------------------------*/
FoamFile
{
    format      ascii;
    class       volScalarField;
    location    "0.00519";
    object      rho_0;
}
// * * * * * * * * * * * * * * * * * * * * * * * * * * * * * * * * * * * * * //

dimensions      [1 -3 0 0 0 0 0];

internalField   nonuniform List<scalar> 
106891
(
1.1476855325158694665
1.1477339082538453585
1.1477525957541816481
1.1477442669124291452
1.1477129610691192418
1.1476655768020516124
1.1476180550378758394
1.1475709816565704546
1.14754880284825167
1.1475407367114851542
1.1475655129818687072
1.1487314245707807014
1.1486603879884527135
1.1485968045488523792
1.1485716593628327864
1.1485911734134000017
1.1486240012500108509
1.1486141790513644256
1.148515489214017693
1.1483222798839713974
1.148085737461137068
1.1478878576211477558
1.1477948887615483375
1.1478222756817375583
1.1479280694784472772
1.1480452045596223343
1.148126165517215691
1.1481649589582754167
1.1481859650728101219
1.1482099230598266093
1.1482303904271127237
1.1482139906937700591
1.1481268072455428353
1.1479615717316453694
1.1477467120956155178
1.1475308126542747011
1.1473566874318283926
1.1472443916881975845
1.1471917761469541119
1.1471850977990663001
1.1472071781943686819
1.1472396009496581559
1.1472616712442700315
1.1472538369241069844
1.1472079681861777622
1.1471364608609817548
1.1470693241515503846
1.1470352735279112366
1.1470375104889116713
1.1470609893160332859
1.1471338300084623629
1.1472077122167643193
1.1472883014797963241
1.1473784353281299975
1.1474770996312930738
1.1475805176853384193
1.1476809625768673584
1.1477705261184922847
1.1478389498031587035
1.1478813744533442609
1.1478928944563657755
1.1478765761900502351
1.147836427524836278
1.1477786874970397069
1.1477177465856855942
1.1476534909255364791
1.147610784310975518
1.1475796789865000402
1.1475807426812878465
1.148490919455385173
1.1484706075668218439
1.1484968586065864571
1.1485574693264455348
1.1486105480012116509
1.1485989234458022779
1.1484814186944125591
1.1482650605678337286
1.1480137331949342716
1.1478157133969231207
1.1477380914699633063
1.1477891480399426971
1.1479167298822277044
1.1480467204079951582
1.1481300794248714414
1.1481645461347584902
1.1481810757863684103
1.1482080188041861035
1.1482429793591935052
1.1482517606881255112
1.1481932084380703785
1.1480499327822522027
1.1478425908254159538
1.1476165158777484887
1.1474172372330209146
1.1472735804770497481
1.1471939158374284684
1.1471710832805970259
1.1471907328723933706
1.1472348722784551089
1.1472771423141998604
1.1472845928088497569
1.1472336456683365213
1.1471286707278960382
1.1470038116759999625
1.1469015764034005134
1.1471752804814812077
1.1472440416973317401
1.1473165126407878223
1.1473985108130586585
1.1474916377002259971
1.1475926479619367182
1.1476945343110520614
1.1477884775404956219
1.1478671671041911218
1.1479231957811031339
1.1479546731873402354
1.147959303984918078
1.1479407049979173383
1.147902266326362497
1.1478480657258558484
1.1477896052963871831
1.1477241310182038081
1.1476746884538941984
1.1476313468523235972
1.1476150578538522051
1.1482865865963842733
1.1483378979631881922
1.1484267049126446469
1.1485179408348475949
1.1485673418420081493
1.1485317979973472813
1.1483918910695101179
1.1481692370637477385
1.1479317031981548514
1.1477555941984696197
1.1476987952732198295
1.1477616740332794443
1.1478886379934924999
1.1480106342448461731
1.1480834049000929742
1.1481078890398421777
1.148116222647421969
1.1481388014195408331
1.1481784538459591793
1.1482059084635738433
1.1481780696530350383
1.1480694576592975764
1.1478886574810347465
1.1476724143205363493
1.1474661506700529756
1.1473040060311237021
1.1472019835629820861
1.1471609258477575288
1.1471717698131473906
1.1472156869524410272
1.1472615285352527614
1.1472691593358141926
1.1472054068346781985
1.1470654116413572243
1.1468814243205256442
1.1467062380852146575
1.1473406142208870673
1.1474064043477076869
1.1474830273796932101
1.1475700744058834335
1.14766242477120195
1.1477521900016858236
1.1478304297711183768
1.14789122360078788
1.1479300903899809505
1.1479486023150313745
1.1479476996602164807
1.1479324310769616346
1.1479059248764262868
1.1478696606011487003
1.1478307790486077522
1.147782298618855501
1.1477427610168953187
1.1477008621073518935
1.1476762640833320095
1.1481982329298883183
1.148350573999610047
1.1484589833702425477
1.148482159931867308
1.1484042720020957162
1.1482373875534479524
1.148023839465028173
1.1478228908539500619
1.1476935771599774405
1.1476634921506465581
1.1477234720493538767
1.1478294696826669696
1.1479245415811023534
1.1479753320958159257
1.1479843590337439618
1.1479791420880236519
1.1479885342891660294
1.1480209304070474463
1.1480567470900200355
1.1480593763509985283
1.1479973359328177196
1.1478640956190726552
1.1476823377735376752
1.147490602598654208
1.147324786906566807
1.1472076946726250668
1.1471474698186814312
1.1471386782107737545
1.1471632152631112689
1.1471906538033120881
1.1471815050958400484
1.1470990739185109586
1.1469300535466133706
1.1466994330397173307
1.147391043780306541
1.1474370577197321452
1.1474901688114647058
1.1475539441303679311
1.1476255766416290083
1.1476979974456553713
1.1477632025453652354
1.1478137402629742247
1.1478471223145345625
1.1478631987936165348
1.1478678287763797172
1.1478649388328880931
1.1478604391559898978
1.1478564563032935819
1.1478511800301263168
1.1478467949472597187
1.1478318189288077011
1.1478193214551557499
1.1477949270222147504
1.1477749157977605865
1.1480680371702063347
1.1482678224881379681
1.1483793728299520609
1.1483658824747362548
1.1482353133327274364
1.1480344692784933969
1.1478266450044918301
1.1476661287051270754
1.1475849190848368409
1.1475843849042814959
1.1476394990050737821
1.1477143383949881539
1.1477746370993595626
1.1477990739622365712
1.1477897073620793034
1.14776695228251846
1.1477560492473770637
1.1477720769206256612
1.147809290009816463
1.1478416204176997706
1.1478342729077111173
1.1477636407023363851
1.1476327736359084319
1.1474691008589645858
1.1473090394312424056
1.1471819056686944904
1.147101623862412767
1.1470657576374396758
1.1470582227268200093
1.1470521262532831219
1.1470132130025048056
1.1469078361084756867
1.1467199328429535932
1.1475405520791825964
1.1475775610407525917
1.1476191073931691911
1.1476628204572849601
1.1477026026911814061
1.147732507309959793
1.1477482551771642783
1.1477515563636566664
1.1477462328881560261
1.1477413449097000342
1.1477430836041282447
1.1477573845796833485
1.1477844535681978044
1.147819273257427275
1.147859241187332513
1.1478887635457291072
1.147914493408782155
1.147919800862270856
1.1479164599572377892
1.1481322627442271944
1.1482332985896690492
1.1481866544979424383
1.1480160425242955657
1.1477855896704403094
1.147570042936375323
1.1474254045237868294
1.1473721765064719413
1.1473942756927251185
1.1474550095278723827
1.1475165820517714277
1.1475541680572149961
1.1475593161094033157
1.1475356156834730648
1.1474969828391856641
1.1474666338671295485
1.1474663678693246549
1.1475032277086105736
1.1475599546697812237
1.1475993673394278005
1.147584762612706033
1.1475014854661587105
1.1473653807575918684
1.1472138942925413918
1.147082200813246633
1.1469875157271662847
1.1469286954779522869
1.1468905140027003675
1.1468481404540331603
1.1467740646118118608
1.146645685165603501
1.1464564120248892376
1.1476484796050214765
1.14766443907476412
1.1476729730898291848
1.1476743498365304941
1.1476674642675694926
1.1476521733178723927
1.1476299553658659836
1.1476064899763918081
1.1475884097616837476
1.1475852157972687984
1.1476026899162303785
1.1476448001412247191
1.1477093274725711503
1.1477883116811962161
1.1478754140874167788
1.1479523626944236891
1.1480198976344793138
1.1480593598977466563
1.1480787452819367633
1.1480146035051701503
1.147937199917459461
1.1477454742881725291
1.147498316489162784
1.1472672478534484686
1.1471096992716174334
1.1470479513378102343
1.147067765119993199
1.1471322951786788735
1.1472002011855242376
1.1472424738841684455
1.1472488206901050312
1.1472240452992945592
1.1471840065291178945
1.1471513619223732139
1.1471496552778728262
1.1471899091796995407
1.147258063776032122
1.1473177811706738449
1.1473281551266401035
1.1472689349318168084
1.1471516142778668268
1.1470099411765803943
1.1468799680172325761
1.1467821292917728115
1.146713959276457695
1.14665595650912433
1.1465854705237079614
1.1464866346638082906
1.1463541978353237738
1.1477622686469060032
1.1477267691585628651
1.1476738473914682714
1.1476103642320918397
1.1475445247529725279
1.1474846410337264935
1.1474406437206530196
1.1474201015042022611
1.1474305556186723543
1.1474739477434821033
1.1475491289055228528
1.1476502603875771147
1.1477666163310362712
1.1478897467740751814
1.1480012718755496781
1.1480986572578064653
1.1481637352598375035
1.1482015404285357274
1.1476071684542095142
1.1474177985000129087
1.1471751620439323283
1.1469314246179873606
1.1467416459366335246
1.1466409124227772143
1.1466313782294608181
1.1466838036026745229
1.146756439376432013
1.1468160365259063571
1.1468462982940239581
1.1468483696067077737
1.1468364787705211949
1.1468322486537871896
1.1468531247209790003
1.1469020507364340311
1.146963082412120194
1.1470054186365592486
1.1469991695055248293
1.1469331614165758637
1.1468217752279730171
1.1466955828836380427
1.1465829750704148449
1.1464956508664023715
1.1464256047416498951
1.1463552531625265107
1.1462718864832122101
1.146175268635844624
1.1478936763764437945
1.1478112384954450853
1.1477039069796659554
1.1475865068923598589
1.1474758912783011855
1.1473871663785133457
1.1473333332523791839
1.1473217987189139322
1.1473556702066820545
1.1474305321929596513
1.1475375080606697864
1.1476647521917577865
1.1477983009201631059
1.1479290024924750924
1.1480419831067896208
1.1481357854739049351
1.1481985337118136847
1.1482361208847198242
1.1470922828673979499
1.1468642568118871949
1.146617212948833453
1.1463986946628124119
1.1462503850328196187
1.1461871093931443877
1.1461945209387831568
1.1462420874338556942
1.1463026984358213323
1.1463636904863536703
1.1464223073588910573
1.146479787446163634
1.1465383807468987332
1.146597100702505756
1.1466482392568382309
1.1466768806333900166
1.1466673735823047497
1.1466117508722513119
1.1465170723755846449
1.146403620407085544
1.1462943302208177254
1.1462032512116475669
1.146129472803429028
1.1460621504606345322
1.1459933405896964853
1.1459264951036811642
1.1458735940890061311
1.1479505502100608716
1.1478071769444275763
1.147658666106181613
1.1475274552080447776
1.1474325897436461474
1.1473875151494017377
1.1473959674340059589
1.1474545594619529609
1.1475526004958276349
1.1476758155913808768
1.1478081268481710175
1.1479318545184007405
1.1480366206168037824
1.1481129882073417559
1.1481645381215930257
1.1481904756385508115
1.148201525957767144
1.1470001529594553435
1.1468303422626446864
1.1466094203028662779
1.1463690029909754386
1.1461450488597038078
1.1459641589384783611
1.1458374329650040657
1.1457651515345002036
1.145745854061849256
1.1457786113508212633
1.1458575308585818853
1.1459682359594571821
1.1460897735374919737
1.1462003617944978018
1.1462844416386985813
1.1463310206301875471
1.1463316042494287039
1.1462820580617907318
1.14618872989419196
1.1460684036368506966
1.1459448756570660422
1.145839129540811685
1.1457595856637645682
1.1457013075007942415
1.1456558682035893337
1.1456227328983430436
1.1456108865357406135
1.1480129199643935856
1.1478768051746852663
1.1477656442222829991
1.1476947776102024434
1.1476737779489454283
1.1477033978656154822
1.1477756790954976029
1.1478749246854815791
1.1479825322458465653
1.1480813013324899785
1.1481565019807769001
1.1482028854895132142
1.1482186665715268248
1.1482119922722582306
1.1481904744934889884
1.1481666007201181134
1.1468737360224074973
1.1467026994113886929
1.146488908213175506
1.146274148454891284
1.1460796424359833701
1.1459029854611015864
1.1457377167287945419
1.1455926672289082902
1.1454943624803295421
1.145467832855229906
1.1455164068207968064
1.1456168883560129412
1.1457335981210217124
1.1458356096577022587
1.1459081447565968581
1.1459479232357330236
1.1459525582599312532
1.145916301399758197
1.1458356359978407735
1.1457192748343170141
1.1455896049693621297
1.1454733664236758095
1.1453892061883570452
1.1453432670146936889
1.1453338681763276519
1.1453577126369582917
1.1454127861825160739
1.1454970005730495952
1.1482081768464995619
1.1481490253733837026
1.1481227663252746574
1.1481313537730488683
1.1481702608758959094
1.1482291078304505128
1.1482927875995720957
1.1483470949271350481
1.1483825512378151856
1.1483924342945797115
1.1483775164418283943
1.1483414194602545866
1.1482919888534055541
1.1482395790325639062
1.148194977175141851
1.1466088333005890476
1.1464215180429715435
1.146249581561870956
1.1461002562050648379
1.1459510911574868341
1.1457819677162588423
1.1456025226640926817
1.1454506785731128904
1.1453651292573483467
1.1453562486522399499
1.1454018555412950331
1.1454653076432455006
1.1455211672831198122
1.1455629683958918896
1.1455945302780592421
1.1456139083596488248
1.1456074728050842371
1.1455589981614968664
1.14546500843076271
1.1453418700364028648
1.1452201628499754094
1.145130701799174533
1.1450936687054922292
1.1451148242743749428
1.1451881930446374813
1.1453006972798500662
1.1454340264731102117
1.1485332830276262506
1.1485497719284485374
1.1485797973769154012
1.148613894690033721
1.1486421563597259965
1.1486574748919542444
1.1486536488886718299
1.1486292921087322139
1.1485840695467022243
1.1485237266905832243
1.1484559296566048125
1.1483874655726675762
1.1483254907243771736
1.1482740245466798168
1.1463571778256629319
1.1462486310199990758
1.1461560573577707078
1.1460485285135260103
1.1458975526073240658
1.1457122772806644928
1.1455296910381118636
1.1453889634219913685
1.145306538528813034
1.1452694309818123308
1.1452534538874608039
1.1452453539783553627
1.145249094850429028
1.1452726841523623857
1.1453110042423395587
1.1453404464646106398
1.1453313022285294132
1.1452682469660910858
1.1451619319468167024
1.1450444018870062912
1.1449548455734324115
1.1449242519805562512
1.1449669672053037761
1.1450778766748059834
1.145232407805159891
1.145394124569546257
1.1489605667214599638
1.149003448637288427
1.1490242449979277684
1.1490178898759586534
1.1489833034314524962
1.1489223201884575243
1.1488419931669600071
1.1487508201183687095
1.1486585044146602197
1.148573253740232003
1.1484979977140956642
1.1484384757424015433
1.1483903101649466372
1.1462307770586543931
1.1462073755263710861
1.1461530381871041229
1.1460332495033442868
1.1458605132160075701
1.1456679058526062498
1.1454893821085685435
1.1453410748295880239
1.1452215453314200655
1.1451230078167915494
1.1450468971268534801
1.1450075645563255744
1.1450169384937172179
1.1450674136693204108
1.1451272064770179338
1.1451570574111480383
1.1451308859778051019
1.1450516235745600291
1.144949430532162804
1.1448672737235927599
1.1448430599662300367
1.1448969080780562191
1.1450239395083592342
1.1451935194166322773
1.1453562711928539919
1.1493581218816408818
1.1493620772583363898
1.1493225384813141599
1.1492454991791514196
1.1491402695268941869
1.1490201551026124616
1.1488993591376082115
1.1487904680714184913
1.1487012823547735341
1.1486313134354377841
1.1485798897744634584
1.1485362773576255346
1.1462039556047418642
1.1461998733870919498
1.1461341785723224707
1.1459903647484668276
1.145802321373464272
1.1456072302176005806
1.1454216979909543905
1.1452468155519290871
1.1450846336648552448
1.1449495820235846555
1.1448649188582273872
1.1448482158371586781
1.1448934463456152955
1.1449686479162988206
1.1450291221634751881
1.1450410967319573086
1.1449978618617924209
1.1449219934581740254
1.1448544313026574049
1.1448359238813234917
1.1448914031078230025
1.1450165217310537269
1.1451755403744614537
1.1453142212723599336
1.1461884444388823479
1.1461635289006470995
1.1460672677783247941
1.1459101435220244714
1.1457208725687939577
1.1455262921370021889
1.1453290408300198511
1.1451333078654064579
1.1449571004237841798
1.1448305023131457592
1.1447788296055663171
1.1448034869539787106
1.1448763716677772262
1.144951962640914811
1.1449912044219023866
1.1449795625938374855
1.1449323881528294944
1.144885396077327977
1.1448772635492470151
1.1449304614707485062
1.1450393500092161947
1.1451685542688081476
1.1452667687978557165
1.1460804132590660664
1.1459647155268457563
1.1458110540053305648
1.1456355928543262568
1.1454484372905593403
1.1452489944956165679
1.145052809259732518
1.1448922513909247645
1.1448003973487608231
1.1447898745333695558
1.1448417410840681097
1.1449142006702250907
1.1449655283415116624
1.1449757390651400524
1.144953938166224372
1.1449298268897976083
1.1449359739655546875
1.1449885312105743118
1.1450778558898639936
1.1451686419776696546
1.145216548905427123
1.1455805016337681224
1.1454050307148277987
1.1452125494099818503
1.1450317803400598127
1.1449013195441060109
1.1448459454867374596
1.1448602392999016608
1.1449106446811057047
1.1449568764030506607
1.1449751598269848341
1.1449697812432051425
1.1449652760672892615
1.1449874166790892094
1.1450437414038223682
1.1451166009910618282
1.1451707024183872541
1.1451716302564900474
1.1450589455206705569
1.144957935748764033
1.1449245102894707315
1.144937171937939091
1.1449610637157572324
1.1449723093139987373
1.1449717369008187706
1.1449795036309544649
1.1450143296111683355
1.1450764787274465561
1.145139979250740847
1.1451689671922300473
1.1451353766750691499
1.1451138682698276394
1.1450322411562481317
1.1449982110718575079
1.1449848563879678753
1.1449720974532069384
1.1449620774584794436
1.1449722107940214499
1.1450153630043717889
1.1450827742690363742
1.1451429350340782687
1.1451584635112672661
1.1451061762980816461
1.1447766802671544006
1.1452626630178950329
1.1458027420535705776
1.1463705712529785874
1.1468825770039574596
1.1472525384024103712
1.1474483412927209969
1.1475131463992955805
1.1475254110679133923
1.1475431921219740872
1.1475830496286620885
1.1476344462533090152
1.147689406625140851
1.1477559240706718402
1.1478411926600438075
1.1479314959797424223
1.1479998692854378461
1.1480186334655730906
1.1479921085408475445
1.1479422403386627671
1.1438249798109383359
1.1442918233511147896
1.1448078681899949149
1.1453992450385126478
1.1460410363272151013
1.1466371349242661104
1.147078233206251463
1.1473160426802864187
1.1473937137006273712
1.1474094063028543733
1.1474451803185501397
1.1475281633775786805
1.1476343950561742613
1.1477307089572883481
1.1478035437684628306
1.1478676818669362181
1.1479323252775435193
1.1479948545001990023
1.1480349612915681234
1.1480386208877921828
1.1480099475570704204
1.1479621216686852758
1.1426024662861178349
1.1430225783567322662
1.1434333566121102077
1.143856194626488243
1.1443440856148925366
1.1449473268250440761
1.1456386993140417196
1.1463102738865740271
1.1468271521354000964
1.1471235065264977493
1.1472373037162970633
1.1472790594302448852
1.1473491521708507612
1.1474819804621523289
1.1476423224806822088
1.1477736879581628138
1.1478489746500082358
1.1478888272536253989
1.1479284027821232694
1.1479854211784099594
1.1480468801261096701
1.148078900702881544
1.1480647338611877917
1.1480099772937164548
1.1479497974926298198
1.1479328817122234074
1.1421053097311437696
1.1425343169773334306
1.1429331240622782051
1.143299913835607251
1.1436705097584609625
1.1441091623361514529
1.1446799362369708408
1.1453653738608606805
1.1460513484916381444
1.1465853956581668616
1.1468846982724869576
1.146987409719385953
1.1470153201278598942
1.1470883517389083295
1.1472481548229513937
1.1474492138711402944
1.1476120433080518879
1.1476948632350865154
1.1477193863031038834
1.147742704760978949
1.1477997957567140919
1.1478812632247434866
1.1479372591000480686
1.1479279210961237379
1.1478556746760573137
1.1477671341879560618
1.1477330648807573255
1.1477961890450363303
1.1437075066452047079
1.1440998275052525202
1.1444027794541056231
1.1445729714071655181
1.1446195020683467281
1.1446276639537991127
1.1447085368728278088
1.14495368854713786
1.1453730750603958732
1.1458534348375568612
1.1462301108885271095
1.146401688280585196
1.1463987984776176088
1.1463457534760885803
1.1463704784941219916
1.1465148941183875841
1.1467197864946658825
1.1468847423635606386
1.1469561809117048146
1.1469596772141932295
1.1469685694577245183
1.1470323549306484789
1.1471359157326050937
1.1472113196912789856
1.1471937813764874203
1.1470808445448419377
1.1469355945033763433
1.1468544353853085127
1.1469017686480718066
1.1470573191233655042
1.1462852633662781177
1.1462227798826802871
1.1460861886795716824
1.145863414868270258
1.1455259439590170789
1.1450934040779630063
1.144670643378600472
1.1443940766740914317
1.144366024844016394
1.1445951386748483003
1.1449523856904211261
1.145248157361039576
1.1453565200284199221
1.1452948283279962283
1.1451923309792606531
1.1451866657979783426
1.1453246289909637667
1.1455366155889348256
1.1457050508814898837
1.1457636436388527468
1.1457408851895902746
1.1457226876238786328
1.1457738685960339176
1.1458797402011644539
1.1459615076533282707
1.1459384852612815031
1.1458036380565799206
1.1456351673184932416
1.1455470604083668462
1.1456148294639487695
1.1458104697054323218
1.1460222417436434217
1.1458210577842931066
1.1455876010595869019
1.1453237544239185386
1.1450038255007626287
1.1445821079763194295
1.1440647249221869153
1.1435563705426408099
1.1432087416783680567
1.1431347565644627284
1.1433448696558430324
1.1437002987354962791
1.1439953066419432659
1.1440949543018938961
1.144014341326826445
1.1438960362993846331
1.1438901711391415983
1.1440467473254130049
1.1442850208343051666
1.1444705750938399813
1.1445268452812389359
1.1444877798241834821
1.1444535510253119881
1.144502209869708409
1.1446221827604878829
1.1447220329185703314
1.1447066366093765488
1.1445611216112467901
1.1443750039333382418
1.144277327001666178
1.1443515826835071181
1.1445674328724317892
1.1447981794886705753
1.1449247984593335925
1.1437861499209716065
1.1441660714247849917
1.1443202074672880197
1.1444002800763977135
1.144469458637092707
1.1444560098382825508
1.144445025662427895
1.1441941680962053329
1.1439269933343878538
1.1436098527632925226
1.1431863402079502912
1.1426576901566507516
1.1421292588437690352
1.1417648195955654167
1.1416894835432775945
1.1419121639078919639
1.1422890627788897522
1.1426016616375969104
1.1427097141788924439
1.1426272008015585513
1.1425054902388069866
1.1425051685940414981
1.1426775877303139151
1.142936760044120259
1.1431374964413818507
1.1431988180396561727
1.1431580604822133562
1.1431249669484326859
1.1431843282889810887
1.1433254714574334621
1.1434469390053543236
1.1434433485597756963
1.1432954387405771524
1.1431007138321866989
1.1430022454197839021
1.1430882099906924942
1.1433262098225818182
1.1435781370696243009
1.1437171422545768795
1.1437256480273521042
1.1439438851448546774
1.1445374499906157961
1.1448466337799731996
1.1449360778547745809
1.1449524955941494664
1.1449657502493784111
1.1448956479716068113
1.143030734937384274
1.1427817003827478448
1.1425233314873974866
1.1422161010172706685
1.141799989535296822
1.1412733139050061926
1.1407408182236966621
1.1403736810138114244
1.1403067277472589414
1.1405422673525176247
1.1409332460453007752
1.1412563768094670102
1.1413673570139697411
1.1412831310929554274
1.1411607430390007245
1.1411683852087530777
1.1413555597303510769
1.1416316181160321985
1.1418432008975265557
1.1419066158749611173
1.1418615232361966072
1.1418260821744032896
1.1418898482812085415
1.1420421873193837836
1.1421757665814422644
1.1421775294046636606
1.1420265718689104339
1.1418243354953401258
1.1417247181216600982
1.1418168661105509987
1.1420650478437273101
1.1423266580505724299
1.1424688284357438217
1.1424744057524587326
1.1424438321952947728
1.1472179407231346548
1.147217632761371453
1.1472303926117248807
1.1472688555193897297
1.1473366297810032588
1.1474292815076125862
1.1475433777887744657
1.1476555160896937391
1.1477638418937621267
1.1478395069039177834
1.1478876325756244281
1.148195836207660081
1.1482753625781725315
1.1483313541438302519
1.1483548712737923214
1.1483535527088091222
1.1483420584778358808
1.1483215841244494015
1.1482797994064648517
1.1482066910783281788
1.1481125277312596022
1.1480243878814739844
1.1479650713261106976
1.1479286094620304581
1.147881706313127026
1.1477864272976621152
1.1476340547548455895
1.1474591367364419536
1.1473276847827704739
1.1472926251416275534
1.1473635212761501556
1.1474988514449973032
1.1476300373930004017
1.1476915383099179913
1.1476501676545778352
1.1475128930504228109
1.1473147099251854719
1.147106456101272931
1.1469396504836202322
1.1468511187204861734
1.1468524899616836521
1.1469237254439899054
1.1470219090299751397
1.1471023550787220469
1.1471367456036623
1.147119384763690908
1.1470620589995292882
1.1467544465575163493
1.1468728160502543734
1.1469827969348025398
1.1470815618899696808
1.1471660685749427433
1.1472328807466867229
1.1472785359040829078
1.1473022389886611272
1.147306049550413265
1.1472967740320456631
1.1472822674194109727
1.1472755456341192648
1.1472862634176879126
1.1473257049143572583
1.1473967838526253349
1.1474942426340415391
1.1476136023294198907
1.1477306024767679471
1.1478440105539533533
1.1479242070447557289
1.1479760536592500397
1.1483740626444089994
1.1484783281784922693
1.1484924357814758622
1.1484264690051950719
1.1483216065114969506
1.1482191077060595052
1.1481341363043040538
1.1480552696954271497
1.1479596323844474259
1.1478533957957857137
1.1477618108775404782
1.1477112981096444511
1.1477061659104272895
1.1477152253161337914
1.147695995173868333
1.1476229352781925908
1.1475065717479340233
1.1473910556950561723
1.1473258666974854858
1.1473322546791773213
1.1473937456216944941
1.1474671680612404945
1.1475026399605072758
1.1474677277854969937
1.1473558751163546177
1.1471875599136482915
1.1470045108466329076
1.146855983612644847
1.1467826913422325408
1.1467981959786135437
1.1468797179871532688
1.1469807175827326784
1.147053511497329259
1.1470686227285653569
1.1470249944990480451
1.1469437287442081352
1.1470810818911556517
1.1472118362139651637
1.1473137208188786129
1.1473865358059878172
1.147432293618064536
1.1474540435734239541
1.147455393763210818
1.1474403605381182647
1.1474137680540785755
1.1473837287709454102
1.1473578990290000945
1.1473474814622179885
1.1473592576553497402
1.1474006661330373724
1.1474724944878538224
1.1475687816147410736
1.1476847931872042885
1.1477974111732105467
1.1479070729366998016
1.1479848450523542081
1.1480361357448991555
1.148628374870273694
1.1485772687818793791
1.1484158510100517248
1.1482131024734218983
1.1480299277863503793
1.1478952667170037039
1.1477934009399930471
1.1476971603174415115
1.1475955160956095025
1.1475100001960965024
1.1474677727962536711
1.1474834585457838187
1.1475393840897873954
1.147591190748987966
1.1475976045453029073
1.1475440712114484132
1.1474486286199332419
1.1473498044459624623
1.1472815924855890302
1.1472584125812470557
1.1472690067007953463
1.1472837144653955654
1.1472679654586781517
1.1471969671568931215
1.1470716249840835488
1.1469216752166637718
1.1467948376797336696
1.1467347555404459047
1.1467567835016634348
1.1468390741860179372
1.1469343154639040083
1.146993026654107739
1.1469868449660787224
1.1469187820144342016
1.1475160917829920759
1.1476141561733623764
1.1476670515834346276
1.147681593023046398
1.1476667688854511606
1.1476317753041460623
1.1475855350057961868
1.147535575603128688
1.1474906370435193903
1.1474572172949899507
1.1474439748397227135
1.1474548897723475527
1.1474939090278473142
1.1475593495644369479
1.1476448657779010354
1.1477465898411587375
1.1478438618333797194
1.147940063066690719
1.1480089984212429322
1.1480569448887674167
1.1486268800887831087
1.1485150723156702934
1.1482892527393904203
1.1480289801179623943
1.1478040167874605793
1.1476454797389901152
1.1475433599994528944
1.1474650003810331622
1.1473851218445572098
1.1473096179151385243
1.1472697165295766553
1.1472853882945532877
1.1473549373023863573
1.1474466388275701423
1.1475141401529904694
1.1475218533306814628
1.1474599614215708066
1.1473488883530300608
1.1472285099403107811
1.1471380170145475397
1.1470962570549305681
1.1470928507026463272
1.1470920065747114425
1.1470552223762751076
1.146968530746793391
1.1468523210702086246
1.1467490202756909223
1.1466990464413175932
1.1467179988817817193
1.1467863659117025765
1.1468604436938811819
1.1468966408658876066
1.1468720155028468977
1.1467915060979703146
1.1477437910615257977
1.1478465250920568685
1.1478931060705237499
1.1478920978147739707
1.1478557428063205226
1.1477973111906814019
1.1477296987236069725
1.1476629589267066667
1.1476065524929424111
1.1475656338347761665
1.1475459273703569885
1.1475485156795244279
1.1475752381630117682
1.1476231756492096814
1.1476863627225339926
1.1477627241648713508
1.1478353069998343816
1.1479107957760044112
1.1479667297928801695
1.148010688031576132
1.1482999763491621437
1.148059823081921893
1.1477953694615259383
1.1475733925605020591
1.1474237350214993025
1.1473372785987008271
1.1472800124174455938
1.1472234903618550028
1.1471612970903364292
1.1471116447498090896
1.1471079441805249743
1.1471619460940665203
1.1472549581127913232
1.1473496996534977566
1.1474057020580801236
1.1473907303015520309
1.1473045484915593839
1.1471797580748852585
1.1470629586318585869
1.1469888670415828713
1.1469616978976233668
1.146954538000759527
1.1469313945639805219
1.146872141641376297
1.1467853562993530758
1.146701286465424019
1.1466517026953051417
1.1466502148021173735
1.14668452265714782
1.1467249760729070207
1.1467403534946036814
1.1467120002062982653
1.1479991526227364407
1.1480558879806053163
1.148060952417460534
1.1480255808145616303
1.1479629149434493751
1.1478866791084150201
1.147808336077494884
1.1477376978168467581
1.1476801349657586027
1.1476409094952071399
1.1476206815895975133
1.1476204142988590817
1.1476374328347174192