/*--------------------------------*- C++ -*----------------------------------*\
  =========                 |
  \\      /  F ield         | OpenFOAM: The Open Source CFD Toolbox
   \\    /   O peration     | Website:  https://openfoam.org
    \\  /    A nd           | Version:  12
     \\/     M anipulation  |
\*---------------------------------------------------------------------------*/
FoamFile
{
    format      ascii;
    class       volScalarField;
    location    "0.015";
    object      alphat;
}
// * * * * * * * * * * * * * * * * * * * * * * * * * * * * * * * * * * * * * //

dimensions      [1 -1 -1 0 0 0 0];

internalField   nonuniform List<scalar> 
75962
(
5.2500896576629182626e-07
7.0493355173154992141e-07
8.0803783868707995397e-07
8.7011859755210523839e-07
9.7261308025029064019e-07
1.1520606740447210274e-06
1.3153962352887416076e-06
1.4146297134138567775e-06
1.4637247130537277537e-06
1.4978521627101420368e-06
1.553274146957628176e-06
1.6870189891855530095e-06
1.8587247405038209667e-06
1.9553943527724586836e-06
1.9974451786944648572e-06
2.0607128572498814646e-06
2.1615189257397768842e-06
2.2405800936693032893e-06
2.2890539342402517929e-06
2.347669293554330423e-06
2.4502704888233517657e-06
2.5879093341431697537e-06
2.7225829244625294185e-06
2.820646505723764424e-06
2.8751603898735550377e-06
2.9090159207665997126e-06
2.9620502516494223194e-06
3.0928708616252917193e-06
3.3088049318019845348e-06
3.4816255371681420078e-06
3.5806379069338975929e-06
3.6230489795769537219e-06
3.6410225198476783939e-06
3.6595200933231801357e-06
3.6967595284770939067e-06
3.7652810067774137217e-06
3.8654426268864705026e-06
3.9836295586024879001e-06
4.098063245140976103e-06
4.1886509995932271879e-06
4.2462115276331733181e-06
4.2811165067160180476e-06
4.3229849825018677576e-06
4.4129552297507278907e-06
4.6146722159959893588e-06
4.8419275257263264859e-06
5.0232938171372461844e-06
5.1281932414957207662e-06
5.1635629399948879706e-06
5.1645686272350333043e-06
5.1575706258377096856e-06
5.1540274641725353252e-06
5.1673381235905318568e-06
5.2475647490802854704e-06
5.3850729683070897816e-06
5.4755084990089793377e-06
5.5233177314139231541e-06
5.5450514620903521262e-06
5.5626367777388683301e-06
5.5986744115590306265e-06
5.6863870857712852722e-06
5.8216775687194160393e-06
5.9640567923508479951e-06
6.0918430453739362817e-06
6.1874148994752246438e-06
6.2438509300687936154e-06
6.2666617597790606195e-06
6.2725045207127324486e-06
6.2809230405242371742e-06
6.3069344833637188715e-06
6.3721814302849828923e-06
6.4581660203709905188e-06
6.5503010291298400042e-06
6.6426917361733779402e-06
6.7261368153780791873e-06
6.7915295696790579618e-06
6.8377008790351900854e-06
6.8737500115901636205e-06
6.9149420035883512743e-06
6.9750089674803711763e-06
7.0586771253031765913e-06
7.160381733191595251e-06
7.2682834833292330777e-06
7.3666283758309486688e-06
7.4409837494230106e-06
7.4859197013766535034e-06
7.5100950975702249074e-06
7.5321168336136065788e-06
7.5710227189790265688e-06
7.6357434340421231775e-06
7.720994947053185886e-06
7.8114134899632251045e-06
7.8905201008814188345e-06
7.9480926262661329997e-06
7.9820925491469154933e-06
7.9971442417786654507e-06
8.0023826445855241938e-06
8.0085352586643519302e-06
8.0255707591860264271e-06
8.0689499855863249932e-06
8.1729742503491765342e-06
8.2992311750005761902e-06
8.4237897795093548051e-06
8.5370022938497141434e-06
8.6284259054387136211e-06
8.6896839716713612583e-06
8.7203071819908183478e-06
8.730549349257894285e-06
8.7366852876633405378e-06
8.7532164089336985188e-06
8.7896548549765280003e-06
8.8415278550246324612e-06
8.8989304085472339169e-06
8.9498344041793568166e-06
8.9850406250883284212e-06
9.0020642512398667983e-06
9.0063048410844463769e-06
9.0078148367788904151e-06
9.0168648626140690598e-06
9.0471334088270508213e-06
9.1266692910173750751e-06
9.2362987519213010114e-06
9.3619577961611159453e-06
9.4980867682346899867e-06
9.6354606909321375554e-06
9.7617485577620881668e-06
9.8649115854181015797e-06
9.93793798817892588e-06
9.9809957528219883752e-06
9.9995211882645418665e-06
1.000272558750008034e-05
9.9991271867126611757e-06
9.9894896382360017244e-06
9.9648583196733685137e-06
9.9345242921005368298e-06
9.9123701189239625748e-06
9.8985189492669451767e-06
9.8916726186044165328e-06
9.890803220471016023e-06
9.9079806128251178966e-06
9.9794115767714439082e-06
1.0100858316179108632e-05
1.022025580019199947e-05
1.0338335157978742471e-05
1.045685599229098146e-05
1.0574737118985560867e-05
1.0688289589463593037e-05
1.0791198578765654937e-05
1.087375245604048509e-05
1.0929362787122352772e-05
1.0955375585821854065e-05
1.0958923315013979635e-05
1.0951093149348742616e-05
1.0935432522784060673e-05
1.0894657480247450492e-05
1.0827275407754447924e-05
1.0775802685393692147e-05
1.0743225502685266044e-05
1.0725323819604345031e-05
1.0716972684648375412e-05
1.0712229738297857223e-05
1.0717674090418190044e-05
1.0755460886033479373e-05
1.0857168314276727399e-05
1.0968068606819631334e-05
1.1076923855696939149e-05
1.1182567307584827523e-05
1.1283017553353449748e-05
1.1373608695969004558e-05
1.1450388605670799006e-05
1.1508475308012892493e-05
1.1545213683904293004e-05
1.1561602401622413474e-05
1.1562823970313896845e-05
1.1556283708387882206e-05
1.1544363303781916794e-05
1.1513002431380976531e-05
1.1468421468108952701e-05
1.1438237818194913918e-05
1.1420927806820274818e-05
1.1411289467984168776e-05
1.1406927038829050476e-05
1.142699235111619251e-05
1.1521434124806072168e-05
1.1652835192183737774e-05
1.1762977791756615018e-05
1.1853956342841894583e-05
1.1926887037008052306e-05
1.2310066452262641997e-05
1.22661701354731155e-05
1.2237594990763863822e-05
1.2221850476953356927e-05
1.2213195284401535606e-05
1.2208137828457071318e-05
1.2216022177767895394e-05
1.2258516918287469633e-05
1.2312888673612777709e-05
1.2363339704966899856e-05
1.2413998577586865389e-05
1.2467957426833495914e-05
1.2524956615448678646e-05
1.2582863842203051763e-05
1.2637536184554978201e-05
1.2684335949216871464e-05
1.2719972370038803124e-05
1.2742713854767892596e-05
1.2753290406542070243e-05
1.2753951165299749689e-05
1.2748728761553372607e-05
1.274054177857652701e-05
1.2730954828808404639e-05
1.2715756036718804499e-05
1.268107915805455105e-05
1.2629733713219062384e-05
1.2588337599839104664e-05
1.2559345659234761856e-05
1.2541606012872005718e-05
1.2530706689035329068e-05
1.2522342002889143243e-05
1.2516166379895844732e-05
1.2521110820785161566e-05
1.254929167193829506e-05
1.2576012013432994577e-05
1.259944027594545278e-05
1.2624090023394978123e-05
1.2654048953010120677e-05
1.2691824588093320177e-05
1.2737293548046769664e-05
1.2788855730285366875e-05
1.2842607524757716132e-05
1.2894146431763594597e-05
1.2938819477468734408e-05
1.297391177644537494e-05
1.299782352042265935e-05
1.3010639463250937004e-05
1.3013998345302370081e-05
1.3010455208840666149e-05
1.3002510065362768123e-05
1.2992941012988478821e-05
1.2980943311983798885e-05
1.2961993419738391338e-05
1.2922591944141284409e-05
1.2869627109154981162e-05
1.2824160750548190509e-05
1.2788177673809523387e-05
1.2760953942395133551e-05
1.2740508653276333675e-05
1.2724991629515119859e-05
1.2711755334543124266e-05
1.2699866184177121677e-05
1.2690659135780526452e-05
1.2689944065870512182e-05
1.27129473924639274e-05
1.2777684558883915054e-05
1.2849149104429100719e-05
1.2920493322222353268e-05
1.298741601327125035e-05
1.3045942812898295146e-05
1.3092183841107458755e-05
1.3124904778275643661e-05
1.3144320005494030402e-05
1.3152500877746531186e-05
1.3152048757215171118e-05
1.3145844420995531562e-05
1.3136900223999343047e-05
1.3127247445134389739e-05
1.3115818149183405017e-05
1.3097975462911205783e-05
1.3058778506019367384e-05
1.2989500244700332278e-05
1.2924860940676813093e-05
1.2869877107757318055e-05
1.2826565367117504207e-05
1.2794435606885850397e-05
1.2771770126128565733e-05
1.275578418496742696e-05
1.2743669447574562228e-05
1.273349440284204557e-05
1.2727020328312580905e-05
1.2732617947276334184e-05
1.2771024844136358024e-05
1.2827453227465063711e-05
1.2880961312085056775e-05
1.2931102774843288066e-05
1.2975525707612377589e-05
1.3013251749219114482e-05
1.3043423190380709943e-05
1.3065602532867608409e-05
1.3080374932449848467e-05
1.3087644368741509443e-05
1.3089060391378959749e-05
1.3085495971767988052e-05
1.3078103610733964588e-05
1.3068512525533457027e-05
1.3058234894834980011e-05
1.3046810367990952509e-05
1.3032383877438002224e-05
1.3008750202454055672e-05
1.2976535699271797821e-05
1.2944058953515807434e-05
1.2911143565197831631e-05
1.2876997624307252283e-05
1.2841307762022278848e-05
1.2804259285405508517e-05
1.2766551196714333671e-05
1.2730691535046354126e-05
1.269859309223329044e-05
1.2673125248188892529e-05
1.2654573759569004687e-05
1.2641674313451709875e-05
1.263205433560049616e-05
1.2628366242085548019e-05
1.2647489169441490962e-05
1.2739812971470293996e-05
1.2895200401520601571e-05
1.3027786712128329823e-05
1.3132659617562650111e-05
1.32116195226070441e-05
1.3268016924543137689e-05
1.330757823812138947e-05
1.3334190375572842964e-05
1.3351208593788109423e-05
1.336056351164622083e-05
1.3363368754365259855e-05
1.3361326153736215397e-05
1.3355967319980921156e-05
1.3345683513679017809e-05
1.3320869820472077736e-05
1.3253033701251755301e-05
1.3118705059191169512e-05
1.2989509981199441949e-05
1.2877170939837955153e-05
1.2784871520875911908e-05
1.2713715959652641327e-05
1.2662823092211108173e-05
1.2629097109820739691e-05
1.2608524742396370584e-05
1.2595291922775265171e-05
1.2585746092107576955e-05
1.2584506661092343408e-05
1.2610764664279410085e-05
1.2707413612025296129e-05
1.2823188319648694231e-05
1.2919039686944502367e-05
1.2993773484846755077e-05
1.3047463606977954093e-05
1.3082642597655263995e-05
1.3103042251762508173e-05
1.3112602529164576594e-05
1.3115168971187501343e-05
1.3113405293208681946e-05
1.3109161824299121426e-05
1.3103280085018217184e-05
1.3095621667959802213e-05
1.3085205526298351709e-05
1.3069778811950844566e-05
1.3042441721961340776e-05
1.2980845802456575537e-05
1.2887954111386816419e-05
1.2795976096369332276e-05
1.2708505527130464034e-05
1.2627933699658316756e-05
1.2556213972509952398e-05
1.2495272405645034425e-05
1.2445618177688078831e-05
1.240821493722981902e-05
1.2382065721585423494e-05
1.236555247904557791e-05
1.2355238063232411015e-05
1.2347398851680768745e-05
1.2345591622114616588e-05
1.2365738229901489237e-05
1.2452741348429266843e-05
1.2578707387433521795e-05
1.2684201137734147841e-05
1.276715793966252156e-05
1.282801562162258156e-05
1.2869094708227688412e-05
1.2893688709942355831e-05
1.2905813257431542407e-05
1.2908918446541777072e-05
1.2906169626506117353e-05
1.2899841276950229458e-05
1.2891296717641683768e-05
1.2882098868049075819e-05
1.2872067503487389886e-05
1.2860424601784227491e-05
1.2844762068639184905e-05
1.2817507630253514034e-05
1.2756344104573329556e-05
1.2666722819057187508e-05
1.2575510497197041449e-05
1.2484842705304090437e-05
1.2397713734505611712e-05
1.231763914379288788e-05
1.2247965276320449629e-05
1.2191127906523492889e-05
1.2149056307712968248e-05
1.2120704355977232576e-05
1.2103773407109228967e-05
1.2093075012408708519e-05
1.20859758201718426e-05
1.209200819157731667e-05
1.2141361912757722035e-05
1.2267354402002256537e-05
1.2385217035219932616e-05
1.2481250740430222296e-05
1.2555141879839024522e-05
1.2608860635427443451e-05
1.2645181997077939196e-05
1.2667917689938030103e-05
1.2680196560168839466e-05
1.268496047722670094e-05
1.2684381358250509551e-05
1.2680341669688878153e-05
1.2673864119432167935e-05
1.2666092871511683103e-05
1.2657904306885422728e-05
1.264963883999142575e-05
1.2641284475670448709e-05
1.2631771797796906376e-05
1.2618250393830669862e-05
1.2592692305327722214e-05
1.2531209138369441347e-05
1.2437776415193249136e-05
1.2341317795844653814e-05
1.2245787724189966271e-05
1.2154908095717158775e-05
1.2073368640639696279e-05
1.2004852953330670597e-05
1.1951773191927507343e-05
1.1914489766421301861e-05
1.1891041275002065981e-05
1.1877182331896698659e-05
1.1867786479151737358e-05
1.1862874664018380568e-05
1.1874101896778746474e-05
1.1936964409111930512e-05
1.2067502420041430888e-05
1.2186641198439080783e-05
1.2289009839222702117e-05
1.2371189059848220108e-05
5.96932698085905531e-07
7.5788362663024596056e-07
8.4417748827127868553e-07
8.8911207184591607524e-07
9.698763831325684997e-07
1.1519790445992939642e-06
1.3279762925431505664e-06
1.4159948941199353993e-06
1.4598839148339931701e-06
1.5301199848903278064e-06
1.6711699487963122157e-06
1.7902682242694070535e-06
1.8573612781086937366e-06
1.9158907923533090887e-06
2.017381796797862241e-06
2.1683331068545593434e-06
2.32496222946584596e-06
2.4388950296007616401e-06
2.4976735755118067369e-06
2.5260057361666385811e-06
2.5613705677707243953e-06
2.6408299049982836366e-06
2.8173286397988121315e-06
2.9843072731064245818e-06
3.0898983051978232146e-06
3.1395662871339262579e-06
3.1721338486927904172e-06
3.2334967176720654727e-06
3.3718404629697575174e-06
3.5400602354829286966e-06
3.6863901403065888648e-06
3.7936339908845313453e-06
3.8595043446653449544e-06
3.8920145023953175298e-06
3.9106504745812342339e-06
3.9426161466235069595e-06
4.0214364438637071125e-06
4.165505455533015982e-06
4.3090545666007696606e-06
4.4186140272691681069e-06
4.482474434730221254e-06
4.5174613765535148773e-06
4.5639705182275264344e-06
4.6709352757528248723e-06
4.8541555529261887678e-06
5.055482662563523527e-06
5.2265783123886180392e-06
5.3349064854974066177e-06
5.3786306934158126106e-06
5.3839291637803530751e-06
5.3795890117643432326e-06
5.3775999345852497425e-06
5.3919627577714061446e-06
5.4746627047457300207e-06
5.6502848597164883942e-06
5.7735493698789564686e-06
5.8402609103213868382e-06
5.8700099244423779063e-06
5.8924055437334991913e-06
5.9393706421514133449e-06
6.0349056361912195188e-06
6.1582953993261948367e-06
6.2873389533869298228e-06
6.402762309556175696e-06
6.489932254317044231e-06
6.5429549970989851065e-06
6.565869574660022532e-06
6.5714135257010257765e-06
6.5762611206675132403e-06
6.5929785334513281374e-06
6.6441696221775152116e-06
6.7576993823767638448e-06
6.8733023518263014614e-06
6.9801387306152245729e-06
7.074198526113455739e-06
7.1533061846630152146e-06
7.2210970621052496921e-06
7.2847637178882907588e-06
7.3510990102767335223e-06
7.4241743611210177781e-06
7.505393195076074727e-06
7.5909021017542493051e-06
7.6709256684507410088e-06
7.7354539443160742605e-06
7.7790710769809838894e-06
7.8050848926329714875e-06
7.8254046523732264409e-06
7.8572083206633128036e-06
7.9138185851416166191e-06
7.9989440659493408158e-06
8.1047411904614917211e-06
8.2157106256208665377e-06
8.3159841718663909846e-06
8.395072575198682201e-06
8.4495891064981532443e-06
8.4816843672307988794e-06
8.4969952162598270744e-06
8.5037530609634171658e-06
8.5118984851460505989e-06
8.5317981435459584012e-06
8.5824300468613149004e-06
8.6904962175840768556e-06
8.817941243125828116e-06
8.9473716700745228295e-06
9.0632392590736699536e-06
9.1516216174160961832e-06
9.2053823989689869344e-06
9.2281258846167722086e-06
9.2327587691749959204e-06
9.2343662720985832988e-06
9.2424864959895003456e-06
9.2709075359480631759e-06
9.3212259704583174384e-06
9.3676195815314662542e-06
9.4068858987790966416e-06
9.4440680157954203124e-06
9.4873119200014626476e-06
9.5451599307655261628e-06
9.6193828785189818567e-06
9.7068545992146029207e-06
9.8006461374955919813e-06
9.8953721862555928882e-06
9.9901600604442815286e-06
1.008637468918972573e-05
1.0183408083471288686e-05
1.0274280409256207578e-05
1.0351229673013910456e-05
1.0408223751843871831e-05
1.0443650809238468811e-05
1.0460119849301461063e-05
1.0463822648275275201e-05
1.0461105189029228321e-05
1.0453166311933423965e-05
1.0433820659910515984e-05
1.0411875012273013742e-05
1.0395614878628293482e-05
1.0386188644939928395e-05
1.0383640515724045986e-05
1.0403122628864177636e-05
1.0493636090363381416e-05
1.0673725627977302249e-05
1.0830216341611071556e-05
1.0957711638496048118e-05
1.1061502024215787179e-05
1.114992224671304354e-05
1.1230289327819959874e-05
1.1305225951578798361e-05
1.1372621673890924841e-05
1.1426685107444592012e-05
1.1461420953305522408e-05
1.1475023390988706588e-05
1.1472498072521284036e-05
1.1462519708100850992e-05
1.144410234964433647e-05
1.1400610904118930534e-05
1.1345196837182060931e-05
1.1307138843312010621e-05
1.1284972830726239555e-05
1.1274748125366211096e-05
1.1269269930359553434e-05
1.127352094611812732e-05
1.1313799428374499563e-05
1.1437138960801427026e-05
1.1569523042440011046e-05
1.1681675566352647756e-05
1.1776847932081344246e-05
1.1858371954988770731e-05
1.1930060140554101176e-05
1.1993392271110564734e-05
1.2048161916488135377e-05
1.2091088072481063982e-05
1.2119709812549183761e-05
1.2133558289014441872e-05
1.2135468914218882418e-05
1.2130674586591133802e-05
1.2121847038319048814e-05
1.2101263049402564032e-05
1.2063871406223778117e-05
1.2033913155351015178e-05
1.2013823514845076753e-05
1.2001234026340738429e-05
1.199276812499984422e-05
1.1996201824024594731e-05
1.2042270400260040043e-05
1.2145540556640449403e-05
1.2242162694516737383e-05
1.2329500188453019173e-05
1.2409977507338449396e-05
1.2482285989253351585e-05
1.3019691257819533163e-05
1.2960824982854492611e-05
1.2914507177354000338e-05
1.288361636783534512e-05
1.2866026430352920181e-05
1.2856249333682544188e-05
1.285039149716883971e-05
1.2859689441985444074e-05
1.2914824559083979335e-05
1.2990665701493205234e-05
1.3054011008441512525e-05
1.3109958618948155417e-05
1.3162864743632718694e-05
1.3216181891048348898e-05
1.326959353163432721e-05
1.3321423338187033989e-05
1.3368631471169831505e-05
1.3408039872614125991e-05
1.3437078979933841691e-05
1.3454931755744122486e-05
1.3462004393148318198e-05
1.3460619359367932427e-05
1.3454037411637600379e-05
1.3445052289933744839e-05
1.3433345710851616873e-05
1.3410712122835691089e-05
1.3357257346718959937e-05
1.3295668608031133623e-05
1.3248306213350168767e-05
1.3215065532360592744e-05
1.3194189778227681401e-05
1.3180767799578716468e-05
1.3170364065286277358e-05
1.3160900487242551516e-05
1.3158942755071769632e-05
1.3180414247317847161e-05
1.3214429761835162544e-05
1.3247780134736872676e-05
1.3283574451625068742e-05
1.3323757953637415654e-05
1.3369138328108409787e-05
1.3418507563306899467e-05
1.3470307324173288021e-05
1.3522028258172562738e-05
1.3570531254405591567e-05
1.3612913727245963189e-05
1.3647363399342122414e-05
1.3672095456215474559e-05
1.3686126772551722799e-05
1.369007713198261387e-05
1.3685860932124921122e-05
1.3676341983305458048e-05
1.3664926239092760506e-05
1.3649369136482512299e-05
1.362016349070624333e-05
1.3565922658045697244e-05
1.3516794950225159583e-05
1.3478513293801506239e-05
1.3450392079083961893e-05
1.3430650210796832292e-05
1.3415501890315089059e-05
1.3402395827605513361e-05
1.3391942443938520516e-05
1.3393422384403341259e-05
1.3431124916480405957e-05
1.3505576624937184181e-05
1.3580099050514278121e-05
1.36522159792671135e-05
1.371848709830017622e-05
1.3775203528679864153e-05
1.3818973443678834727e-05
1.384861998789237e-05
1.3864504199428056224e-05
1.3869139370543689482e-05
1.3865621799359140117e-05
1.3857317105940777449e-05
1.384711043968965022e-05
1.3836549485234661414e-05
1.3825129564401375117e-05
1.3811303492598067704e-05
1.37901145207280109e-05
1.3745366884749265311e-05
1.3678280142434271399e-05
1.3615685436121838104e-05
1.3561354393728526608e-05
1.3518150837129069058e-05
1.3485814638830534933e-05
1.3463221165163380505e-05
1.3447131818974903137e-05
1.3434780297121020354e-05
1.3424407961034248225e-05
1.341990843897376808e-05
1.3435150725923425584e-05
1.349334018445405468e-05
1.3558523321856367328e-05
1.3617720728586558341e-05
1.3669587865258290714e-05
1.3713097921498221837e-05
1.3747267535970511868e-05
1.3771907748903347045e-05
1.3787501914067299818e-05
1.3794808009342337027e-05
1.3795795946201569725e-05
1.3791943000799428167e-05
1.3784459870584858698e-05
1.3775187498788008322e-05
1.3764987152352327069e-05
1.3753455237695668e-05
1.3738820826915001009e-05
1.3715302696243826308e-05
1.3680380871454981298e-05
1.3644534283630575724e-05
1.3608674537022721763e-05
1.3572088542213261067e-05
1.3534406695735835946e-05
1.3495394559181359765e-05
1.3455520958890981431e-05
1.3415211398573533586e-05
1.3377026524739662276e-05
1.3343012958208488454e-05
1.3315611406669705029e-05
1.3295849143596693949e-05
1.3281920722805928389e-05
1.3271660292149704477e-05
1.3265666052833879361e-05
1.3277769969006427252e-05
1.3351336142139809984e-05
1.3515518521310188735e-05
1.3662320139055992199e-05
1.378055239461633477e-05
1.3871367646129394055e-05
1.3938140416744630558e-05
1.398658280332330277e-05
1.4020303917722823996e-05
1.4042374160164956999e-05
1.4054869662356740798e-05
1.405899339035685619e-05
1.4057005996939753821e-05
1.4051108329421421828e-05
1.4039984449450434398e-05
1.4013213261943677365e-05
1.3939470835857925248e-05
1.3794787685995598872e-05
1.3657115580043208261e-05
1.3538662943626759074e-05
1.3442544588836485698e-05
1.3370498258084607967e-05
1.3320021043098720574e-05
1.3288201954365418684e-05
1.3269083704989096368e-05
1.3256416321321756534e-05
1.3247961824082588728e-05
1.3253043309915121136e-05
1.3302062910508727573e-05
1.3423247942509088958e-05
1.3535226549816373827e-05
1.3625671321927314186e-05
1.3693669787429501244e-05
1.3740714136598691393e-05
1.3770136956096922065e-05
1.3786205340457156944e-05
1.3793005028961022342e-05
1.3793959961913386446e-05
1.3791429802763052281e-05
1.3786617970715035595e-05
1.3780198668503323539e-05
1.3772082529106649361e-05
1.376152164567893072e-05
1.3746792609396888313e-05
1.3722562222484840905e-05
1.3670454761677802889e-05
1.3577142945974080506e-05
1.3481154761695216158e-05
1.3388372379714655539e-05
1.3301049702543335515e-05
1.3221784634924176619e-05
1.3153115800588027255e-05
1.3096231768204486575e-05
1.3052678331370005002e-05
1.3022000557243465447e-05
1.3002498047391573835e-05
1.2990722142161118419e-05
1.2982075814017932864e-05
1.2978028969393468438e-05
1.2991233600414495717e-05
1.3060813987833881468e-05
1.3182631567501460924e-05
1.3287820026868706484e-05
1.3372888512236079248e-05
1.3438526263191269609e-05
1.3487211166921979556e-05
1.3521772127785604503e-05
1.3545509654686578466e-05
1.356037719326775513e-05
1.3568565897517210442e-05
1.3570844878433015209e-05
1.3568535845396480972e-05
1.3562501764051435442e-05
1.3553528726662414638e-05
1.3543414708571481476e-05
1.3531769823299399138e-05
1.3516506782078339038e-05
1.3491006759702127359e-05
1.3433700886381135873e-05
1.3325597524489392624e-05
1.3214965961574782349e-05
1.3108973721273927115e-05
1.3011601977217915257e-05
1.2926859535517113743e-05
1.285749427810934002e-05
1.2805843816371275697e-05
1.2771042453375582818e-05
1.2750196981386927484e-05
1.2737875486119611915e-05
1.2729394260052539313e-05
1.2732232691197833803e-05
1.2772960174801984443e-05
1.2892491263355288799e-05
1.3012236289883282928e-05
1.3110221361456896505e-05
1.3186812155306799403e-05
1.3243758501765345371e-05
1.3283704152725145118e-05
1.3309934005652790333e-05
1.3325549437552348719e-05
1.3333074881170480755e-05
1.3334568287021661211e-05
1.3331789588662595669e-05
1.3326071703331735939e-05
1.3318403665600574623e-05
1.330996891271766765e-05
1.3301307899824340073e-05
1.3292672235334860911e-05
1.3283287511915008674e-05
1.3270757697355614317e-05
1.3248490827626849432e-05
1.3195925843089123097e-05
1.3094916841740511965e-05
1.2987913601812570865e-05
1.288176396435097085e-05
1.2780915495178661996e-05
1.2690007607207072249e-05
1.2613366819226477374e-05
1.2553570843473568259e-05
1.2511212250696726876e-05
1.2484397274679837452e-05
1.2468802509236421769e-05
1.2458751139701234798e-05
1.2452318135818650157e-05
1.2458500114924694446e-05
1.2504768192741903379e-05
1.2634501059521052781e-05
1.2768622162756649189e-05
1.2885240141079760566e-05
1.2980585392185871449e-05
5.9282322507841855797e-07
7.5977254079931506392e-07
8.6800373174806082516e-07
9.2573718410056703615e-07
9.9666668821063591162e-07
1.1419959958837802136e-06
1.3444457030019330104e-06
1.4887107145127468852e-06
1.5562446412508679364e-06
1.6021843105442908069e-06
1.6999820682431890789e-06
1.8756704420062265675e-06
2.0033096220988126553e-06
2.0821032911103795265e-06
2.1477241038916432858e-06
2.236825266430561967e-06
2.3585274855865699118e-06
2.4825722366511267595e-06
2.5763950171425340903e-06
2.6421106480803772402e-06
2.7168723934376999347e-06
2.8265943650757242816e-06
2.9532918997655976152e-06
3.054973115741236377e-06
3.1146798326213441033e-06
3.1656681044300152825e-06
3.2648249291083458581e-06
3.4305187500774904468e-06
3.6188636652607328358e-06
3.7731108055299656955e-06
3.8676962814239414722e-06
3.9179747599487370753e-06
3.9553872153420439341e-06
4.0071243273998647503e-06
4.0889333808639391948e-06
4.2006066073775081841e-06
4.3271318332648140526e-06
4.4448228282486537227e-06
4.5342127284689904342e-06
4.5891833551762479794e-06
4.6193141138780400971e-06
4.6511563643396942376e-06
4.7204132422211214604e-06
4.8942406640336346161e-06
5.1432228012569908182e-06
5.3689131512876459501e-06
5.5272063990965399644e-06
5.6078856208165017022e-06
5.6313801243731691445e-06
5.6307341797555480301e-06
5.629237789136836479e-06
5.6414276482582410992e-06
5.7133508091565765553e-06
5.9081039622861904065e-06
6.0675629721126808774e-06
6.1587212781960706619e-06
6.2009091161287412057e-06
6.2163896073124361405e-06
6.2261840155900922031e-06
6.2481152089235467587e-06
6.3096691724148042105e-06
6.4686060661326902276e-06
6.6404612305839703091e-06
6.7697216971326292604e-06
6.8459868381431139239e-06
6.878337878846305598e-06
6.8863672221259094786e-06
6.8907347722288313257e-06
6.9069880052841546786e-06
6.9601784516649976771e-06
7.0952579384391571018e-06
7.2314626017823368839e-06
7.3353404691715199816e-06
7.4074719555658652645e-06
7.4578933035788573904e-06
7.5003612506661228537e-06
7.5481286204204856274e-06
7.6096135010864656651e-06
7.6857059232684115578e-06
7.7730345865086939426e-06
7.8668287045649910383e-06
7.9642267351402102254e-06
8.0602804739651427301e-06
8.1472019420141922027e-06
8.217288097682030502e-06
8.2679624962049537917e-06
8.3019391496799232013e-06
8.329010330911459326e-06
8.3637297232772410817e-06
8.419050281249482496e-06
8.497437885355076475e-06
8.5910327828852638929e-06
8.6882320008874941496e-06
8.7806083704951287932e-06
8.8641693423140753094e-06
8.9351905071428961455e-06
8.9897033240475069787e-06
9.0254183581040502827e-06
9.0442173595175461568e-06
9.0551281914646596267e-06
9.0728874333716395519e-06
9.1170600266920360513e-06
9.2356549583167825114e-06
9.3865007766667768176e-06
9.5193600784830113213e-06
9.6194891523305796029e-06
9.6842071897754130233e-06
9.7231118237720810463e-06
9.7516913309809893549e-06
9.7828513402114084706e-06
9.822173580792782223e-06
9.8669308389950712051e-06
9.9098114699935437765e-06
9.9430300618267541518e-06
9.9641274310319078431e-06
9.9761212492362107834e-06
9.9894773166132756878e-06
1.0014679252100320604e-05
1.0060627518873437454e-05
1.0129851149807152013e-05
1.0220198548851710499e-05
1.0327388608577145988e-05
1.0446819570701729659e-05
1.0572881224209073668e-05
1.0694683055364149959e-05
1.0800707055167109075e-05
1.0880746553983831795e-05
1.0931249419163412414e-05
1.0954901799981395447e-05
1.0960371764402423428e-05
1.095774902512056539e-05
1.09512064775091972e-05
1.0936042851270266719e-05
1.0919827840197563046e-05
1.0908107069436900365e-05
1.0899710530832739996e-05
1.0901501897123395908e-05
1.0940481512575512689e-05
1.1065086558122203027e-05
1.120396856348276664e-05
1.1324715312415711732e-05
1.1430613923452296202e-05
1.1526655164993471065e-05
1.1620297720321812098e-05
1.1716080099747477205e-05
1.1813044738654213196e-05
1.1905438806844662871e-05
1.1983601054506750732e-05
1.2039580080467095948e-05
1.2067892704778959354e-05
1.2073126810196767582e-05
1.2064947233055999906e-05
1.2049051210031577614e-05
1.2010066177465297246e-05
1.1950046502282490844e-05
1.1909532243893177007e-05
1.1889382254685150806e-05
1.1882057520164876003e-05
1.1884314069329576262e-05
1.1920742766126080409e-05
1.2037204701033266089e-05
1.2155234883124465257e-05
1.2245986747045628433e-05
1.2317359090416805906e-05
1.2377573790083545277e-05
1.243523876763796032e-05
1.2495175064766500859e-05
1.2559486160391047552e-05
1.2623780944366764909e-05
1.2682973283990248554e-05
1.273006086328738844e-05
1.2760554463257967213e-05
1.277437776381217156e-05
1.2775264215181111524e-05
1.2769907254426940784e-05
1.2755926630690263624e-05
1.2714608279131991723e-05
1.2657197683637113494e-05
1.2613685777154477215e-05
1.2584822733810075595e-05
1.2567060081116307642e-05
1.255599108261495374e-05
1.2548692458342513211e-05
1.2554671185965632198e-05
1.2603875614776744872e-05
1.2707056918183784613e-05
1.2807004560362214129e-05
1.2905306750503640762e-05
1.2998650697939916819e-05
1.3711643313089515322e-05
1.3648309000154233562e-05
1.3604840186212705685e-05
1.3579667226327116599e-05
1.3566656369278598954e-05
1.3559468482147477925e-05
1.3570226854470110388e-05
1.3638398910589208198e-05
1.3739814714505210207e-05
1.3818613271044584106e-05
1.3879343916041938186e-05
1.3928726524034783636e-05
1.3972392267508735876e-05
1.4013466106451130845e-05
1.4053788852536230116e-05
1.4091819824049895571e-05
1.4126144169094763267e-05
1.4155241878458482937e-05
1.4178040630443761232e-05
1.4193946932938068822e-05
1.4202953562106490789e-05
1.4205075455183485296e-05
1.4201357143971833258e-05
1.4193776800987908151e-05
1.41840904847612074e-05
1.4171082787870761802e-05
1.4145578543943745814e-05
1.4092919326888993483e-05
1.4043052292121132921e-05
1.4005607015654157545e-05
1.39796533302017972e-05
1.3962543915952770502e-05
1.3949774653734330236e-05
1.3938161858570786004e-05
1.3928575595588173349e-05
1.3930053013669577386e-05
1.3961649073760331401e-05
1.4005870312216058525e-05
1.4050030577765060919e-05
1.4095836332134666248e-05
1.4143149127890917055e-05
1.419041267502829941e-05
1.4236625305703555716e-05
1.4280691875525528656e-05
1.4322270319028160968e-05
1.4360233111711499736e-05
1.4393522338308850929e-05
1.4420916015599587133e-05
1.4439842582617558908e-05
1.4449006616235123988e-05
1.4448244982408936407e-05
1.4440314720507695112e-05
1.4428807591683126074e-05
1.4414802885715835822e-05
1.4392100872373239575e-05
1.4346712233593794674e-05
1.4299724803270724377e-05