/*--------------------------------*- C++ -*----------------------------------*\
  =========                 |
  \\      /  F ield         | OpenFOAM: The Open Source CFD Toolbox
   \\    /   O peration     | Website:  https://openfoam.org
    \\  /    A nd           | Version:  12
     \\/     M anipulation  |
\*---------------------------------------------------------------------------*/
FoamFile
{
    format      ascii;
    class       volScalarField;
    location    "0.015";
    object      nut;
}
// * * * * * * * * * * * * * * * * * * * * * * * * * * * * * * * * * * * * * //

dimensions      [0 2 -1 0 0 0 0];

internalField   nonuniform List<scalar> 
75962
(
4.5554111450787347006e-07
6.1149804357580980586e-07
7.0051850712765952441e-07
7.5385470067078200724e-07
8.4249190576199861876e-07
9.9861756596923411194e-07
1.1410716567762890316e-06
1.2265795835491263628e-06
1.2677066820710565834e-06
1.2964963516470359687e-06
1.3446253588065421121e-06
1.4614589694217203709e-06
1.611793661660003362e-06
1.6959045602971948072e-06
1.7310412931673413111e-06
1.7839503862160588419e-06
1.8698634484597494231e-06
1.9384660028709195634e-06
1.9814359719205875244e-06
2.03262171837640835e-06
2.121247926494829567e-06
2.24055915722789565e-06
2.3578598728467852206e-06
2.4429999468937139532e-06
2.4895646647166423805e-06
2.5181794086676277002e-06
2.5638490004101115395e-06
2.6771217021104140399e-06
2.8645370227709838909e-06
3.0142569780637808292e-06
3.0990541652785296002e-06
3.1343161574509419778e-06
3.1491717492315112237e-06
3.1655645184275484123e-06
3.1986655230765501265e-06
3.2586959038427701394e-06
3.3459943377312616711e-06
3.4489206817365926401e-06
3.5483863744062964009e-06
3.6268280101180890052e-06
3.676316125293704657e-06
3.7058897205035563655e-06
3.7413627325559244487e-06
3.8184423285623900261e-06
3.9926093766472337852e-06
4.1893949395675777504e-06
4.3462630846249821216e-06
4.4367243238086806172e-06
4.4669361221912921373e-06
4.4669917130251590747e-06
4.4602572913911653913e-06
4.4569665280936077064e-06
4.4683111950807604762e-06
4.5370692721120654912e-06
4.6558142881159085333e-06
4.7345973959426692449e-06
4.7768803149629768395e-06
4.796168191361035348e-06
4.81110834792319167e-06
4.841427817264974284e-06
4.9157938350085162704e-06
5.031121652786107746e-06
5.152840133596471101e-06
5.2626787594296432256e-06
5.3457474653129905692e-06
5.3960753879455340557e-06
5.4179236266099926655e-06
5.4244618333931319669e-06
5.4315266843651425899e-06
5.4521979634842567767e-06
5.5067959261560567039e-06
5.581181039826476691e-06
5.6627878958893202669e-06
5.7453597556715538681e-06
5.8199732238264654323e-06
5.8785777328054275757e-06
5.9199425258844928243e-06
5.9511028563644569517e-06
5.9847783287349874451e-06
6.033475938363011727e-06
6.1029921951040397987e-06
6.1897276938733525716e-06
6.2834169288258082597e-06
6.369482230133866655e-06
6.4344224928748228559e-06
6.4730185102726964583e-06
6.4926273411206719869e-06
6.5096421886996827172e-06
6.5412429006005890544e-06
6.5960215478843595247e-06
6.6695233320617882864e-06
6.7479564748652584455e-06
6.8168699021148214471e-06
6.8677339842961404476e-06
6.8988317899691038748e-06
6.9134191671170941771e-06
6.9183583202676997994e-06
6.922584100271114848e-06
6.9352513182855781343e-06
6.9706695153431293179e-06
7.0593849285474459467e-06
7.1688283343701148079e-06
7.2781688256293674321e-06
7.3784376616516991878e-06
7.4598312520258925251e-06
7.5144672757444544941e-06
7.5416813166939373808e-06
7.5500924280630404188e-06
7.5537937655992729889e-06
7.5656322450214019899e-06
7.5946919485139697587e-06
7.6380936376835567304e-06
7.687548164860352008e-06
7.7322140915372363987e-06
7.7635178939154679995e-06
7.7790379653962190871e-06
7.7835123455938339313e-06
7.7856855248356169084e-06
7.7942487477510858892e-06
7.8207652608810442009e-06
7.8894738025450208735e-06
7.9840021275980381998e-06
8.0922266514035743625e-06
8.2093757691297512591e-06
8.3275534564681943282e-06
8.4360928506486397322e-06
8.5244662381234838556e-06
8.5863258880662178112e-06
8.6215759602086553459e-06
8.6349108786452366413e-06
8.6347621963031704375e-06
8.6293360997949508916e-06
8.6201171119708172645e-06
8.5996814496784259083e-06
8.5754535654471481681e-06
8.5583871944634422254e-06
8.5475578393860405255e-06
8.5415458174878595884e-06
8.5400033975325955908e-06
8.5543676934746512287e-06
8.6166071761571682295e-06
8.7234313456600663894e-06
8.8289608335821388437e-06
8.9329042897638520339e-06
9.0362811046841682601e-06
9.1379943796904229605e-06
9.2348644047690817003e-06
9.3215602734512763137e-06
9.3899747228169923779e-06
9.4350999493802494104e-06
9.4554162646646208561e-06
9.4575209464793182003e-06
9.450863951759795969e-06
9.4380865077266888077e-06
9.4037346697436345123e-06
9.3459214091483508414e-06
9.301448315909965412e-06
9.2730582255206582033e-06
9.2572554352885024815e-06
9.2497040736541936019e-06
9.2452816714284202912e-06
9.2497263321681986661e-06
9.2822953442130297336e-06
9.3706161743415339815e-06
9.4675686864276041604e-06
9.5630070918345080389e-06
9.6556033502830597892e-06
9.743381804019606509e-06
9.8221757328839892198e-06
9.8886133211070624305e-06
9.9385467928383687758e-06
9.9697364243572069375e-06
9.9830860303514768627e-06
9.9831697860278774057e-06
9.9764634043774547421e-06
9.9651609188584066998e-06
9.9372991392116888582e-06
9.8982105182667634813e-06
9.8719947726399255339e-06
9.8574906978008354405e-06
9.8503073202738066074e-06
9.8483406773026299121e-06
9.8679353089109201605e-06
9.9519652941945747562e-06
1.0068386405091907891e-05
1.0166177051478069674e-05
1.0246806143316503846e-05
1.0311074766710487418e-05
1.0648485936865546974e-05
1.0610315664099599157e-05
1.0585440756561883058e-05
1.0571691269291517745e-05
1.0564237774873294805e-05
1.0560268820598575637e-05
1.0568038849269160046e-05
1.060628705655955425e-05
1.0655243770631693691e-05
1.0700568167453380233e-05
1.0745395969911376697e-05
1.0792259441132649313e-05
1.0841130332594158645e-05
1.0890539154938235213e-05
1.0937252513858634214e-05
1.0977440100675485389e-05
1.1008222960568820925e-05
1.102802103658940511e-05
1.1037347441985322736e-05
1.1038027116064617314e-05
1.1033484133476754448e-05
1.1026180254209742444e-05
1.1017474154247504744e-05
1.1003761402402017041e-05
1.0973124642132721853e-05
1.0927832138292560218e-05
1.0891018503445631962e-05
1.0864885046778997683e-05
1.0848602077708107265e-05
1.0838638385365215712e-05
1.08316216311981769e-05
1.0827512793862687196e-05
1.0834031897662930265e-05
1.08614645315631942e-05
1.0887953246139932172e-05
1.0911149304736789641e-05
1.0934434522941939124e-05
1.0961089526922634328e-05
1.0993342773686634868e-05
1.1031454629354873581e-05
1.1074526523030495077e-05
1.1119638927063054491e-05
1.1163258049632112832e-05
1.1201443107948533549e-05
1.1231723381691939071e-05
1.1252544951464174428e-05
1.1263792827215120929e-05
1.126681057089812203e-05
1.1263793828110620494e-05
1.1257024789447010621e-05
1.1248994773532248177e-05
1.1239061923791607072e-05
1.1223298006595192628e-05
1.1189957064568229204e-05
1.1144763630544681147e-05
1.1106087838336978072e-05
1.1075815894561765975e-05
1.1053523086970410306e-05
1.1037671611416069193e-05
1.1026686672587149434e-05
1.1018035069683531296e-05
1.1010468628654929255e-05
1.1004651613946609702e-05
1.1005239065545006238e-05
1.102528502193017252e-05
1.1080746666573456697e-05
1.1141676063390259922e-05
1.1202385963123785077e-05
1.1259440499432477858e-05
1.1309550385766270911e-05
1.134934772940382861e-05
1.137770839627359492e-05
1.1394755387867023556e-05
1.1402225504014018445e-05
1.1402287172209689493e-05
1.1397333242793949615e-05
1.1389841302660932919e-05
1.1381520305273204195e-05
1.1371476264854822865e-05
1.1355854108803049019e-05
1.1321991781083422495e-05
1.1262276937856573319e-05
1.1207009748502321682e-05
1.1160613073414159951e-05
1.1124757286483943851e-05
1.1098874509091551888e-05
1.1081300282411328585e-05
1.1069460019932183035e-05
1.1060787850845527576e-05
1.1053505046782548344e-05
1.1049036498475618795e-05
1.1054566971476706484e-05
1.1088083571780370178e-05
1.1137084704892729584e-05
1.1183345497565342307e-05
1.1226605404015034754e-05
1.126495227101105792e-05
1.1297568950972352602e-05
1.1323746146195717125e-05
1.1343031224313537974e-05
1.1355937348260930554e-05
1.1362389242467089105e-05
1.1363867994527991525e-05
1.1361200979648881462e-05
1.1355381899476815421e-05
1.1347756668185560302e-05
1.1339531243075244013e-05
1.1330188295471130692e-05
1.1318047100784507582e-05
1.1297733602603472834e-05
1.1269777846735481644e-05
1.1241525147047644461e-05
1.1212939118608194705e-05
1.1183381469438410653e-05
1.1152577468856887923e-05
1.1120693570331080895e-05
1.1088345543236691423e-05
1.1057719319578733898e-05
1.1030494099627573886e-05
1.1009163796548316556e-05
1.0993976747481943682e-05
1.0983828274534787432e-05
1.0976652601289795154e-05
1.0974703292737424145e-05
1.0992594061095245422e-05
1.1073986081921493912e-05
1.1210896201517275164e-05
1.1328216488788596893e-05
1.1421376827561204579e-05
1.1491616201492101598e-05
1.1541493246377815461e-05
1.1575662677449596627e-05
1.1597312691794889062e-05
1.1609379462665660754e-05
1.1613815022875669596e-05
1.1612096108594268182e-05
1.1606310552331921193e-05
1.1598358036444445407e-05
1.1587255395013654259e-05
1.1564818544843916861e-05
1.1506329586235068392e-05
1.1390661545409138728e-05
1.1279709956465954398e-05
1.1183590232359870515e-05
1.1104981927281259578e-05
1.1044851423187554681e-05
1.1002479392509832416e-05
1.0975162139986496452e-05
1.095931833635172605e-05
1.0949730209448169536e-05
1.0943024813935899617e-05
1.0943027810716921873e-05
1.0966300390811103795e-05
1.1050268255931571535e-05
1.1151027106020692498e-05
1.1234309366701721527e-05
1.12990833362303079e-05
1.1345320687109658375e-05
1.1375043479017859902e-05
1.1391339273196567704e-05
1.1397576194614630592e-05
1.1397203369781275828e-05
1.1392800277707634671e-05
1.138634123422291452e-05
1.1378942350551897138e-05
1.1370770860797748552e-05
1.1361111826682428896e-05
1.1348004978450733842e-05
1.1325357795542348761e-05
1.127362291171261193e-05
1.1194809745976645971e-05
1.1116858515401888116e-05
1.1042765308368383427e-05
1.0974500658989157638e-05
1.0913682350598825121e-05
1.0861919428355156566e-05
1.0819618225024143053e-05
1.0787626085884337472e-05
1.0765148781915880938e-05
1.0750902273477197125e-05
1.0742053631521520797e-05
1.0735499041724979921e-05
1.0734389572966131663e-05
1.0752529445775674602e-05
1.0828846152941810113e-05
1.0939728759060624987e-05
1.103294059162955579e-05
1.1106476770847418029e-05
1.1160578505267998453e-05
1.1197178136371110138e-05
1.1219117454458169306e-05
1.1229919327327313181e-05
1.1232636386129316833e-05
1.1230115235007572213e-05
1.1224436741430511092e-05
1.1216874596541164146e-05
1.1208864267469484559e-05
1.1200307897416722738e-05
1.1190563682735048655e-05
1.1177546273049652817e-05
1.1154663255924676557e-05
1.1102476430457415844e-05
1.1025298789997154159e-05
1.0946595393887121383e-05
1.0868201683206390424e-05
1.0792720546499152929e-05
1.0723273977802556348e-05
1.0662883448001650975e-05
1.061379852552866415e-05
1.0577820489487640117e-05
1.0554099001910711579e-05
1.05406137795095145e-05
1.0532759882909389958e-05
1.0528074729334191095e-05
1.0534667544367020347e-05
1.0578584943727487738e-05
1.068930903539128871e-05
1.0793171313800032648e-05
1.087795177653402659e-05
1.0943471094570600237e-05
1.0991503065758984008e-05
1.1024481167123965014e-05
1.10456900931491205e-05
1.1057772354359002753e-05
1.1063188048298638476e-05
1.1063727552727384932e-05
1.1060955470959945928e-05
1.1055726756502078727e-05
1.1049017729962365639e-05
1.1041601640939509781e-05
1.1033822849278832564e-05
1.102569948751711668e-05
1.1016344661818656495e-05
1.1003355777310811498e-05
1.0979847532410568246e-05
1.0925179686844474299e-05
1.0842532990039389129e-05
1.0757398699853584068e-05
1.067333860515218314e-05
1.0593684059963796211e-05
1.0522545198638935904e-05
1.0463127653980333989e-05
1.0417492307448171846e-05
1.0385867279273963861e-05
1.0366462991054253183e-05
1.0355480405179814257e-05
1.0348354298893893262e-05
1.0344968983710101481e-05
1.0355367049291997031e-05
1.0410257512077759445e-05
1.0524368398084718872e-05
1.0628455108887545862e-05
1.0717710323215439618e-05
1.0789150299749340607e-05
5.1632232914772523107e-07
6.559195526267302946e-07
7.3162161815843367693e-07
7.7085739716704870389e-07
8.4066248003958545755e-07
9.9912649883786178e-07
1.1526856301405527931e-06
1.227925728939540247e-06
1.2640151126740602059e-06
1.3239178156745409088e-06
1.4461656204289722447e-06
1.5506036064442842188e-06
1.610118347581485584e-06
1.6609213532238319607e-06
1.7479157223821476925e-06
1.8773557359467313299e-06
2.0115897480152034087e-06
2.1100515528119462386e-06
2.1619806509863348371e-06
2.1870961181622270224e-06
2.2174146905970835509e-06
2.2858320257943261252e-06
2.4386688583030327589e-06
2.583304606098783401e-06
2.6742883587080152262e-06
2.7169781661704884475e-06
2.7454420242445244181e-06
2.799184848019177156e-06
2.919572257336672745e-06
3.0655689979092763249e-06
3.1915686709391195406e-06
3.2827286029735069559e-06
3.3379929136664036739e-06
3.3654306963326823187e-06
3.3819315649224437727e-06
3.4102536664827334384e-06
3.4788891231877748037e-06
3.6039871679559836858e-06
3.7283697231351395814e-06
3.8229819387071361259e-06
3.8783036734307152769e-06
3.909240692162266525e-06
3.9500333989094377874e-06
4.0422785629182406592e-06
4.1997537272088016384e-06
4.3728816223133070313e-06
4.5204534510540550827e-06
4.6141779200533886596e-06
4.6519157962682066346e-06
4.65588078255233465e-06
4.6511862368857424376e-06
4.6485199803406543085e-06
4.6600642049419334898e-06
4.7307396596163844485e-06
4.8826926194489404589e-06
4.9901147720038765455e-06
5.0485017102717896708e-06
5.0744201148795208721e-06
5.0936156232174759775e-06
5.1336282489063593952e-06
5.2150601110621333466e-06
5.3204969609273470367e-06
5.4315044113922732576e-06
5.5317757042119285768e-06
5.60851619123727313e-06
5.6562819884004405911e-06
5.6780266528804943559e-06
5.6839259309172025881e-06
5.6876159460395958348e-06
5.7002271880449359646e-06
5.7426690588033551393e-06
5.8405127331731273405e-06
5.9418255373595081054e-06
6.0362229742397980161e-06
6.119460644034314561e-06
6.1894056797498294998e-06
6.2488326011305610138e-06
6.303445574310009836e-06
6.3589349533879642367e-06
6.4196656311047238435e-06
6.4880341226084147399e-06
6.5614558920999018916e-06
6.6313808563789563544e-06
6.6884615705724313601e-06
6.7273133159566433188e-06
6.7499614640325418776e-06
6.7661423689935059711e-06
6.7906242412150091427e-06
6.8360488560464178798e-06
6.9070130453719761016e-06
6.9974518063936105009e-06
7.0938884281681918566e-06
7.1821536078740570925e-06
7.2527124127164210556e-06
7.3021561352734137222e-06
7.331688976787431758e-06
7.345525919243719243e-06
7.3506019634530686102e-06
7.3559191609307056126e-06
7.3712074064976570702e-06
7.4136672639856517913e-06
7.5072697415111550848e-06
7.6190974985379773682e-06
7.7333088623002175886e-06
7.8354209875771949122e-06
7.9128201377049054365e-06
7.9593972995658366683e-06
7.9784952658998268274e-06
7.9812758543647942261e-06
7.9807558397171305948e-06
7.9856184219771838455e-06
8.0085168905445758281e-06
8.051440617532563455e-06
8.0919441817425146363e-06
8.126857662293642616e-06
8.1602629411015174978e-06
8.1990517915743646964e-06
8.2503704679717063965e-06
8.3153973332927976912e-06
8.3913044154393992411e-06
8.4722459740682192652e-06
8.5537902768782486939e-06
8.6353481605758675643e-06
8.7180562223826084097e-06
8.8014407396584340713e-06
8.8795999150530059252e-06
8.945670124898388772e-06
8.994018612337839044e-06
9.0228233306391337538e-06
9.0341989202350390876e-06
9.0340644843055094895e-06
9.0288981315399701236e-06
9.020762977307276393e-06
9.0046899439245855823e-06
8.9876206705763669067e-06
8.9755895233459023037e-06
8.9684835896368470735e-06
8.9659508988753888319e-06
8.9816095124825736208e-06
9.0587753175377919352e-06
9.2149934393729946564e-06
9.3522499161050746724e-06
9.4649386383719647566e-06
9.5565837607860479205e-06
9.633826919185529771e-06
9.7028449445988320342e-06
9.7660454738964067755e-06
9.8218093553668667819e-06
9.8655356254874799365e-06
9.8928200733893173463e-06
9.9028624430945990851e-06
9.9003159410392760847e-06
9.8924050043422168555e-06
9.8777322974372808081e-06
9.841375422405447898e-06
9.7940798848081357582e-06
9.7611780228492275353e-06
9.7415609226818635906e-06
9.7320367895469872993e-06
9.7266899489974633952e-06
9.7299988663528213346e-06
9.7646431223710724375e-06
9.8713625775217368616e-06
9.9866076014117369594e-06
1.0084604141129606695e-05
1.0167992649238016055e-05
1.023949337077737153e-05
1.0302403368341977026e-05
1.0357935714769599871e-05
1.0405760513512052361e-05
1.0442852404155089332e-05
1.0466887685138022971e-05
1.0477378714318531314e-05
1.0477004860594965334e-05
1.0470788553878371537e-05
1.046159890374050825e-05
1.0443236471987373679e-05
1.0411315938857570632e-05
1.038653375887473543e-05
1.0370667225503155874e-05
1.0361429479134962327e-05
1.0355886155193781754e-05
1.0360792735816012466e-05
1.0402578464372725791e-05
1.0494088887390040947e-05
1.0579733619975392942e-05
1.0656879412235680828e-05
1.072752214588034121e-05
1.0790632403022866064e-05
1.1260974168326444536e-05
1.1209423803053098631e-05
1.1169093757407103982e-05
1.1142363918929055398e-05
1.1127305335430657534e-05
1.1119213448285898037e-05
1.1114879367749225516e-05
1.1124167912417470995e-05
1.1173616128707428475e-05
1.1241550178506873388e-05
1.1298470775013948815e-05
1.1348257088226743546e-05
1.1394455495671935085e-05
1.1440161893361664336e-05
1.1485460840113153241e-05
1.1529318521978914751e-05
1.1569409082044540644e-05
1.1603130850325433254e-05
1.1628250148581923616e-05
1.1643936600285081023e-05
1.1650347391909765624e-05
1.1649298102875116007e-05
1.1643503685771542953e-05
1.1635373794030475433e-05
1.162475630214938035e-05
1.1604660873393674535e-05
1.1557892949749052898e-05
1.1503818005317495757e-05
1.1461912233413641039e-05
1.1432205179165947986e-05
1.1413491673381845673e-05
1.140193151136199616e-05
1.1393984464260524528e-05
1.1387863824578544586e-05
1.1388904292709510615e-05
1.1410318730070860885e-05
1.1442256897973944254e-05
1.1472678653327060422e-05
1.1504095422288901143e-05
1.1538333149366060532e-05
1.1576438361161892938e-05
1.1617819908139533192e-05
1.1661449596914894453e-05
1.1705359618577244093e-05
1.1746839507293635167e-05
1.178332393291346098e-05
1.1813139136562414745e-05
1.1834717431998580459e-05
1.1847178595352376093e-05
1.1851084741078483895e-05
1.1848106917238148932e-05
1.1840674158778660921e-05
1.1831665155469187287e-05
1.1818994817981950035e-05
1.1794323129404524547e-05
1.1747656545833644326e-05
1.1705200866355689184e-05
1.1672319202426886841e-05
1.1648799619892422649e-05
1.1633411142107708125e-05
1.1622937582610526406e-05
1.1614889992435079822e-05
1.1609216976044814309e-05
1.1613298954057088818e-05
1.1647637046541637763e-05
1.1712825229437997184e-05
1.1777005445377929392e-05
1.183835135904000989e-05
1.1894332750931436594e-05
1.1942161579862283196e-05
1.1979162730106093123e-05
1.2004445937949915986e-05
1.2018279279350423136e-05
1.2022752074329887047e-05
1.2020379793495438892e-05
1.2013923694832669863e-05
1.2005749755272043537e-05
1.1997084599721705546e-05
1.1987481171640802861e-05
1.1975650318087705125e-05
1.1957429550097444263e-05
1.1918946014044200487e-05
1.18611595868799374e-05
1.1807510249990291038e-05
1.1761336897138798907e-05
1.1725137300398086822e-05
1.1698659146204417149e-05
1.1680866921561440557e-05
1.1668854392937266453e-05
1.1660091736895388423e-05
1.1652893076434780038e-05
1.1650480912862833384e-05
1.1664741625585753782e-05
1.1715887739532724877e-05
1.1772951411438859428e-05
1.1824546850123273306e-05
1.1869627692876084387e-05
1.1907390666093333224e-05
1.1936979507358354765e-05
1.1958234048483355934e-05
1.1971537937867989749e-05
1.1977574076412504918e-05
1.1978118990266856242e-05
1.1974549118904624368e-05
1.1968021399992390398e-05
1.1960151736316935702e-05
1.1951665652675242575e-05
1.1942079006122536711e-05
1.1929770026259957813e-05
1.1909659086853579353e-05
1.1879484958388538462e-05
1.1848469602559354079e-05
1.1817512571139956849e-05
1.1786072865505296491e-05
1.1753846259511733477e-05
1.1720557660879896345e-05
1.168652314955529855e-05
1.165205748537695554e-05
1.1619380298192990083e-05
1.1590300912066044578e-05
1.156699278177489743e-05
1.1550417139139375041e-05
1.1539067766880066753e-05
1.1531110532705159268e-05
1.1527058269813377213e-05
1.1538886811355742278e-05
1.1604065061695711985e-05
1.1748632019217424726e-05
1.1878456401981810704e-05
1.1983331102684212526e-05
1.2063890123136387214e-05
1.2122679109825628763e-05
1.2164346305508187888e-05
1.2191890625959750464e-05
1.2208070963001644801e-05
1.2215033703086346445e-05
1.2214369842582198754e-05
1.2208656994758605412e-05
1.2200331065205762335e-05
1.2188614656444283479e-05
1.2164572871277587013e-05
1.2101023945421998369e-05
1.1976363486684929596e-05
1.1858040420698000351e-05
1.17566451825525069e-05
1.1674828035902050873e-05
1.1614123114515406096e-05
1.1572365936448359569e-05
1.1546963913011310015e-05
1.1532590621468767609e-05
1.1523591262967712215e-05
1.1517789425441657527e-05
1.1523112396140198688e-05
1.1565868910007222404e-05
1.1671205763879729267e-05
1.1768602070675107663e-05
1.184721670655364369e-05
1.1906274051419799519e-05
1.1946934593359515868e-05
1.1971858198096509956e-05
1.1984549542789008355e-05
1.1988476884309122211e-05
1.1986738919028432548e-05
1.1981689611522984077e-05
1.1974777694071898568e-05
1.1966981042324456388e-05
1.1958492777234542889e-05
1.1948779503245026017e-05
1.1936289048372909267e-05
1.1916225523740879268e-05
1.1872547596241062726e-05
1.179318488592294587e-05
1.1711518940672055534e-05
1.1632628223179501328e-05
1.155839207367997655e-05
1.1490990261371289167e-05
1.1432549726803705077e-05
1.1384022587265248857e-05
1.1346725956235441128e-05
1.1320313002761611584e-05
1.1303417627638549922e-05
1.1293195309684395382e-05
1.1285804534119822279e-05
1.1282611147193383628e-05
1.1294620608278648893e-05
1.1355687096778369237e-05
1.1462854478271968954e-05
1.1555802014885625746e-05
1.1631257095702683953e-05
1.1689661832620882459e-05
1.1733051456515585179e-05
1.1763816147246565518e-05
1.1784817552744860817e-05
1.1797785919369125309e-05
1.1804701438683615046e-05
1.1806344784377240285e-05
1.1803998873697522758e-05
1.1798547320906769428e-05
1.1790795837780696588e-05
1.1782373000119288013e-05
1.1772969903238546041e-05
1.176072413211603651e-05
1.1739803494597578351e-05
1.1691420955829900312e-05
1.1598548707578378418e-05
1.1503130581272272707e-05
1.1411513233359126687e-05
1.132723451331752289e-05
1.1253910398861594047e-05
1.1194073226932514848e-05
1.1149878132788543252e-05
1.1120643325850448419e-05
1.1103847228989337131e-05
1.1094661682678450912e-05
1.1088827859833407552e-05
1.1092645527092457859e-05
1.112901041025040999e-05
1.1233852644916603026e-05
1.1339138360546738396e-05
1.1425374798743940749e-05
1.1492999201776284387e-05
1.1543635277067512617e-05
1.1579626496395192998e-05
1.1603816632908330134e-05
1.1618848965226749974e-05
1.1626812570856822818e-05
1.1629380448204552743e-05
1.1627970834916766805e-05
1.1623662767531659206e-05
1.1617270946300649253e-05
1.1609817029498923626e-05
1.1601795933570546992e-05
1.1593486248669962539e-05
1.1584273860926885954e-05
1.1572153336524201647e-05
1.1551488804506221517e-05
1.1504599390436500266e-05
1.1415437821088235298e-05
1.1321156061967413146e-05
1.1227901991106430349e-05
1.1139605999032670366e-05
1.106034096138590614e-05
1.099386276345816226e-05
1.094233885852859638e-05
1.090621353817687028e-05
1.0883739724234615606e-05
1.0871063276442602841e-05
1.0863167081040330563e-05
1.0858265928102536665e-05
1.0864107921090507296e-05
1.0904458797494114011e-05
1.1017443223030713785e-05
1.1134522396781520247e-05
1.1236129475449049611e-05
1.1318998019215195579e-05
5.1408090641338231917e-07
6.5857472106489852601e-07
7.5360428276584679149e-07
8.0397756254241340366e-07
8.6435333098318591335e-07
9.8924800281586536324e-07
1.1648401176096235826e-06
1.2894191158250804808e-06
1.3469848331133843769e-06
1.386647125862283715e-06
1.4714915069567513617e-06
1.6238880642444119222e-06
1.7349075416820576528e-06
1.8035827992313142653e-06
1.8608914564992073082e-06
1.9378560641547126645e-06
2.0420786060297084148e-06
2.148714901814318436e-06
2.2304196382105365445e-06
2.2878168052002112837e-06
2.352301172729937766e-06
2.4467888282607910071e-06
2.5557092835553840978e-06
2.642926413857049245e-06
2.6942657741725146916e-06
2.7386474322998560467e-06
2.8251295771864521685e-06
2.9693914432738621457e-06
3.1333311388324658984e-06
3.2674885178848328633e-06
3.3490600620913639516e-06
3.3908731268293123157e-06
3.4206442951454734345e-06
3.4634749573029308107e-06
3.5339103558608003379e-06
3.6311992098961041599e-06
3.7414103270795352932e-06
3.8436264834463901367e-06
3.9208927868930741649e-06
3.9682062460714611753e-06
3.994756486568793824e-06
4.023628293860838671e-06
4.0844954577622063672e-06
4.2341007542422139665e-06
4.4478088272170775462e-06
4.6415873184987572518e-06
4.7779510287754549069e-06
4.847759939684090103e-06
4.8680899844369674749e-06
4.8674347188767681698e-06
4.8658233763279145666e-06
4.8756125320363407784e-06
4.9366703983534440596e-06
5.1043826001133213411e-06
5.2427592832958506253e-06
5.3222599176807426223e-06
5.3589251987436150768e-06
5.3721138793636437803e-06
5.3803970292306397654e-06
5.3990236757936037082e-06
5.45142321663819481e-06
5.5878828496477280446e-06
5.7366779427259388812e-06
5.8499392140306116043e-06
5.9179307165784825841e-06
5.9477508669600486391e-06
5.9559521474732893723e-06
5.9601093756011711859e-06
5.9733905307784592893e-06
6.0177948200711360076e-06
6.1331829445103517079e-06
6.2507474008132822083e-06
6.3413518217895511778e-06
6.4048731543547807006e-06
6.4495281599152784062e-06
6.4870813031618380849e-06
6.5287414068047222948e-06
6.5814835055101986408e-06
6.6460645642494016333e-06
6.7199783020023923322e-06
6.7997805283791846567e-06
6.883686852426645416e-06
6.9675922153364103898e-06
7.0443347868735639499e-06
7.1062822095301894635e-06
7.1500715062833783973e-06
7.1773561235029387963e-06
7.1968405453556601086e-06
7.2224801441120309713e-06
7.2671365907873478437e-06
7.3341534453449469828e-06
7.4166084231279426532e-06
7.5034708348920443871e-06
7.586293765044958647e-06
7.6607698001067220454e-06
7.7232607734367243957e-06
7.7702694888894068535e-06
7.800002084304835518e-06
7.8145475125508796034e-06
7.8223820245261767282e-06
7.8370982149576151951e-06
7.8760533029833604393e-06
7.9804199206059929029e-06
8.1130420437183112757e-06
8.2290845241188343735e-06
8.3154356162205339862e-06
8.3704381279461504838e-06
8.4032344917569401266e-06
8.4273317087417366002e-06
8.4534102291275622888e-06
8.4859934963548414353e-06
8.5231651599889172289e-06
8.559340616628134538e-06
8.5881592329305348539e-06
8.6073824949154750948e-06
8.6192946503050094412e-06
8.6325927666186080258e-06
8.655859626454197992e-06
8.6963843538958455131e-06
8.7563684775885536755e-06
8.8341881313108741006e-06
8.9265070828185760955e-06
9.0293218820418346012e-06
9.1377107881443483337e-06
9.2422487837460969387e-06
9.3332574401108569741e-06
9.4020683476171818769e-06
9.4452293962471660333e-06
9.4644789970843108191e-06
9.4670883400086744766e-06
9.462103729589310341e-06
9.4539524510613684092e-06
9.4394379589380216931e-06
9.4253689611818181196e-06
9.4162102079817374626e-06
9.4100787790244734397e-06
9.4119557746840304863e-06
9.4447673504299184714e-06
9.5510127534551003263e-06
9.6705166901183120515e-06
9.7756238477988272978e-06
9.8689566198310733122e-06
9.9539572132897475432e-06
1.003618181937127736e-05
1.0119128383858857914e-05
1.0202097308210935863e-05
1.0280378124652945216e-05
1.0345849772032359869e-05
1.0392068281542654647e-05
1.0414809822416628462e-05
1.0418512894976885474e-05
1.0411748391799426812e-05
1.0399227673879710005e-05
1.0367187949134941497e-05
1.0316604245174187753e-05
1.0282149581083090923e-05
1.0264410613888633059e-05
1.0256982732249704304e-05
1.025742667816720752e-05
1.028754412138200639e-05
1.0387572855735879116e-05
1.0490275836125168785e-05
1.057009206302117787e-05
1.0633349917580375995e-05
1.0686769593001567042e-05
1.073765571054909099e-05
1.079034690244352841e-05
1.0846840832696008617e-05
1.0903425073816603582e-05
1.0955408827691394145e-05
1.0996215095272423665e-05
1.1021525565957302812e-05
1.1031201915935516343e-05
1.1028938028595997652e-05
1.1021404933535955067e-05
1.1007602108233102505e-05
1.0971909810274789077e-05
1.0923715895266931288e-05
1.0888326760376480825e-05
1.0865631999647353743e-05
1.0852097799084110366e-05
1.0843893814103774517e-05
1.0838749362965233221e-05
1.0845076605780309923e-05
1.0888674139047715834e-05
1.0979110425755115964e-05
1.1066661672025440792e-05
1.1152701221327335934e-05
1.1234514971706863353e-05
1.1857119153725171023e-05
1.1801551771171204283e-05
1.1763916422484766905e-05
1.1742729572901190906e-05
1.1732402528193367839e-05
1.1727246522957449746e-05
1.1737731089491017258e-05
1.1798101540927458553e-05
1.1888029633850425912e-05
1.1958664224911558419e-05
1.2013455713789993764e-05
1.2057741691157460373e-05
1.2096096614158594114e-05
1.2131192652093950377e-05
1.2164883779723310988e-05
1.2196258584632823526e-05
1.2224534648965733522e-05
1.2248750813097763403e-05
1.2268136937697604434e-05
1.2282077296462672603e-05
1.2290319164631720924e-05
1.2292539063999767784e-05
1.2289449423925919507e-05
1.2282728799670849368e-05
1.227400055690490778e-05
1.2262338555055545553e-05
1.2239809855818695425e-05
1.2193540497453814062e-05
1.2149282152349415842e-05
1.2115667151194667498e-05
1.2092252963785544268e-05
1.2077216277371015499e-05
1.2067013426910624835e-05
1.2058922004901429884e-05
1.20533188298054723e-05
1.2057380240941624781e-05
1.208698457758508623e-05
1.2126764933284569446e-05
1.2165484066380628908e-05
1.2204814662690927795e-05
1.2244984629137438411e-05
1.2284978715011994925e-05
1.2324135530383681586e-05
1.2361565825089892599e-05
1.2396918781492350707e-05
1.2429216560854773428e-05
1.2457548685259617344e-05
1.2480993016389991428e-05
1.2497417739104989793e-05
1.2505785974032942724e-05
1.2505917575928322591e-05
1.2500082797417787285e-05
1.2491205649371436224e-05
1.2480026501333001094e-05
1.2461049267591044228e-05
1.2422132963802078655e-05
1.2381591585321278362e-05