/*--------------------------------*- C++ -*----------------------------------*\
  =========                 |
  \\      /  F ield         | OpenFOAM: The Open Source CFD Toolbox
   \\    /   O peration     | Website:  https://openfoam.org
    \\  /    A nd           | Version:  12
     \\/     M anipulation  |
\*---------------------------------------------------------------------------*/
FoamFile
{
    format      ascii;
    class       volScalarField;
    location    "0.015";
    object      p_0;
}
// * * * * * * * * * * * * * * * * * * * * * * * * * * * * * * * * * * * * * //

dimensions      [1 -1 -2 0 0 0 0];

internalField   nonuniform List<scalar> 
75962
(
99297.456953660162981
99396.696111410303274
99540.120825181191321
99631.428406470877235
99649.756505601661047
99566.312676476736669
99455.16249862247787
99469.515504786701058
99566.615650035688304
99621.874498011573451
99613.969575418057502
99525.023479670140659
99427.549861151681398
99430.699712549278047
99527.894823495225864
99635.151525852576015
99693.93862609405187
99663.987246290605981
99611.112880317508825
99624.55724898329936
99681.469979527377291
99687.505424401795608
99620.432674959243741
99550.178254934013239
99522.0611998840468
99517.615994615684031
99522.245261917923926
99531.315744658102631
99539.401682418756536
99554.904413585478324
99585.443373162779608
99613.555032257907442
99606.59869706016616
99574.534597578953253
99553.297604451116058
99562.029873666033382
99580.264052478567464
99584.477528756062384
99575.623335385258542
99560.848995484411716
99546.573801878548693
99539.769552469879272
99540.827330640517175
99546.108789931240608
99542.505594192174613
99536.300911912083393
99536.92517076797958
99537.592080782167614
99533.016360439636628
99540.709680204163305
99554.219040120835416
99569.828356548401644
99597.660263975936687
99642.752112058398779
99685.155787135008723
99700.075410282457597
99691.776952685599099
99680.78172547018039
99675.491115932978573
99672.464149552761228
99675.988642994328984
99685.092748649185523
99693.777678283207933
99696.252361214836128
99685.868851598293986
99657.573115454608342
99614.60856672738737
99579.390307188106817
99575.829001934966072
99604.154477759395377
99631.213191076967632
99623.909337915873039
99587.306711331519182
99550.696557468501851
99529.607917921443004
99515.794729804561939
99503.347485181890079
99505.831559854384977
99534.64951637260674
99580.226073351674131
99611.81821728264913
99612.080679544713348
99589.676302305611898
99567.775508607781376
99563.797590815491276
99580.574300099469838
99613.434841287191375
99652.779627336218255
99685.221976721601095
99698.661308376351371
99698.832299029294518
99701.698683756767423
99710.967665614705766
99714.438508650506265
99702.524238883517683
99681.820149717401364
99668.128681344242068
99668.736059831178864
99678.819213248963933
99687.472332119286875
99686.427998862811364
99673.75981310174393
99650.872202538957936
99625.276014325063443
99602.912957296459354
99586.185849946952658
99573.014922746180673
99566.279301831760677
99569.182522101385985
99582.87886544362118
99598.859770691764425
99604.874286433914676
99598.568905806198018
99586.996634182272828
99577.417141942234593
99569.967765316774603
99560.005449133197544
99545.588975096179638
99530.979980185249588
99521.586272816944984
99518.743506772458204
99521.335088066844037
99525.4591884323454
99528.524359742325032
99527.672984582692152
99522.617092925720499
99516.170814360259101
99514.828112247443642
99524.810434367769631
99548.349844779833802
99579.380475982965436
99605.035821632031002
99612.483487070217961
99596.161954827606678
99562.612274765007896
99528.197910833318019
99508.517736274647177
99507.61252274409344
99515.696456748672063
99515.762655968545005
99495.814838276375667
99457.822190168211819
99413.903579153426108
99377.20565050424193
99353.763097836388624
99344.325993453210685
99347.702933832551935
99362.164804668907891
99384.889055645704502
99408.136094514964498
99423.314777482286445
99426.195313618780347
99419.695761129070888
99410.607216163683916
99406.101839191382169
99409.110664275969611
99417.517100532379118
99428.186286882584682
99438.511140017260914
99447.39199104263389
99454.915926590794697
99460.04067597805988
99459.849478800140787
99451.377263034708449
99435.549703623517416
99415.878001950361067
99396.867286311549833
99381.833260040453752
99372.263671162290848
99367.293505800887942
99366.093291626137216
99368.34197098344157
99374.147200856299605
99383.019168296275893
99394.761237198108574
99408.954407389566768
99424.30056370406237
99438.848961254174355
99450.19470138248289
99456.008201162578189
99454.076505432109116
99443.042814319342142
99423.229127270518802
99397.151538875317783
99368.932605597641668
99343.433454050653381
99324.583463966890122
99314.239189077794435
99307.740185556453071
99308.487948536174372
99313.716141029930441
99324.930466063291533
99340.141746706067352
99354.416949299775297
99362.359632193911239
99361.348464926835732
99353.176891555194743
99342.56896274513565
99334.401955155146425
99331.062352969966014
99331.623785653981031
99333.55616644359543
99334.834302933813888
99335.097179644697462
99335.792130640737014
99337.941836811805842
99342.158493108174298
99348.598762979454477
99356.675720935556456
99366.076230916121858
99376.212775926396716
99386.758152476584655
99397.582301372051006
99409.049982391763479
99422.196466690875241
99437.717972879254376
99454.882491258147638
99471.031477601602091
99481.898020852109767
99483.45749529900786
99474.079309917273349
99455.839036528399447
99433.81776079563133
99414.290831898149918
99402.347625720067299
99400.479656467330642
99408.232994771460653
99422.251587108548847
99438.483169935265323
99453.588026126366458
99466.239088676811662
99476.627230244805105
99486.278716458036797
99496.106565578549635
99506.34058360720519
99515.573649318757816
99522.116390538285486
99523.635352322118706
99519.573326243305928
99511.131587498239242
99501.126795987802325
99493.318037030447158
99490.605817759846104
99493.82364328179392
99501.250395508803194
99509.301873206539312
99513.626577922332217
99511.192350268756854
99502.235324686698732
99489.879777935566381
99478.550450774549972
99472.270656169755966
99472.655435802415013
99478.937519718558178
99488.767774935549824
99499.744200231856667
99510.336825728983968
99519.879874837846728
99528.577171481840196
99536.348956383153563
99542.470380188111449
99545.83788418774202
99545.821266275132075
99542.553382539743325
99537.375350492220605
99531.645022199110826
99526.534022696825559
99522.204616260540206
99518.067305707314517
99513.46085911076807
99507.772787700974732
99500.798691138203139
99492.895146477516391
99484.391537354575121
99475.450091444174177
99465.803653527967981
99454.963510410409071
99442.588451572752092
99428.982423596899025
99414.907366627274314
99401.460689912550151
99389.477136259854888
99379.535446202527964
99372.195470335747814
99367.70410176612495
99366.818826471659122
99369.467588789702859
99375.993174585426459
99385.074270590557717
99394.854066872125259
99402.813820276220213
99406.443465718795778
99404.593765424418962
99397.547044629260199
99386.826135230483487
99374.744412318148534
99363.484260506142164
99354.587873022464919
99348.592967446500552
99345.609058777525206
99344.967612702690531
99346.175187652363093
99348.827080528339138
99352.040226719560451
99354.703876301966375
99355.827350763764116
99354.575161967353779
99350.737772052452783
99344.564519060208113
99336.652544028620468
99327.626703080808511
99318.06412148848176
99307.937343081764993
99296.980015028690104
99284.923272922053002
99271.909153132757638
99258.982247361913323
99248.223001004487742
99242.251080887130229
99243.771474177876371
99254.594651442632312
99274.793155402803677
99302.223224260174902
99332.62376603030134
99361.046126921923133
99383.222328399002436
99397.028544564600452
99402.974692910123849
99403.688678441016236
99402.473885822386364
99402.030978639610112
99403.242436385233304
99404.945045760410721
99404.75773391011171
99400.12773584498791
99389.85611755005084
99374.564571946830256
99356.554361785762012
99339.024757374209003
99325.072610219416674
99316.748429530533031
99314.540148788189981
99317.994007591783884
99326.164038840099238
99338.487855469706119
99354.901732033016742
99375.857612186533515
99401.382499455910875
99430.541637037240434
99461.032964527024888
99489.495689431598294
99512.238019681972219
99526.14305881987093
99529.859774371812819
99524.158611907580053
99511.283711322830641
99494.587894800992217
99477.5515120816126
99462.641043940340751
99451.114020793611417
99443.403805650610593
99439.023759467876516
99437.118271416577045
99437.025043697372894
99438.316285971319303
99440.762546932062833
99444.125721392163541
99448.117690258586663
99452.389656480998383
99456.557642208848847
99460.391261548225884
99463.731209130812204
99466.643334340828005
99469.17500990012195
99471.330429035035195
99472.96887450342183
99473.692879487440223
99472.969463466113666
99470.26712172687985
99465.320596773526631
99458.429330054917955
99449.977460363617865
99440.563525468867738
99430.908330605641822
99421.642668675573077
99413.126056032502674
99405.443343034567079
99398.5969581471727
99392.679061948016169
99387.930652785740676
99384.620949476608075
99383.018116334758815
99383.228158400946995
99385.151738756234408
99388.251340169736068
99391.731090666959062
99394.704320117074531
99396.458684882934904
99396.956920944940066
99396.891329135556589
99397.376579228308401
99399.390621720609488
99403.442143837135518
99409.181659466266865
99415.407076133909868
99420.345623841101769
99422.11506796827598
99419.07640260354674
99410.420678029797273
99396.359467942529591
99378.139658029889688
99357.797418350746739
99337.616279101363034
99319.741353800156503
99305.773638032347662
99296.542282897353289
99292.410802833779599
99293.189179353532381
99298.085741885442985
99306.486842465747031
99317.683201559775625
99330.680927461551619
99344.664832438429585
99358.600472423669999
99371.736400839377893
99383.279603802177007
99392.482403230227646
99398.570383087571827
99401.511914725298993
99401.553801513218787
99399.289297387265833
99395.728104852460092
99391.64857456968457
99387.879665788466809
99385.008605180322775
99383.370764186343877
99383.11965503700776
99384.291375628323294
99386.774511382594937
99390.710060258657904
99396.032740988506703
99402.452224515422131
99753.366978081001434
99726.1350472226477
99591.424274177406915
99548.537648541736417
99569.597542272458668
99466.307507895820891
99366.22987685224507
99461.422262825522921
99613.995421170751797
99666.141349880752387
99653.209975407778984
99576.721873734466499
99494.535156794940121
99495.798976753023453
99545.939606998043018
99604.852613374459906
99666.428336766257416
99662.961183087303652
99617.071990662007011
99629.154099350329489
99693.810260639074841
99721.238261338963639
99676.821087868665927
99612.433164747038973
99571.231016540463315
99548.48254548641853
99533.366934575271443
99527.854257189930649
99526.473137754379422
99529.33361170545686
99549.312979558031657
99586.340119947533822
99621.772284098857199
99633.029608336408273
99630.769159837655025
99639.686636250058655
99658.036618034835556
99667.220977430362836
99667.418802782529383
99659.983866407215828
99629.356030911614653
99573.573211193433963
99526.665413693452138
99517.206188792450121
99546.837277840997558
99583.44538251159247
99600.275691700153402
99596.097158374526771
99585.424737445253413
99585.209424821005086
99599.471834626179771
99627.675358138687443
99667.831228570532403
99710.228708217633539
99738.054089576791739
99747.041980095906183
99748.554430813586805
99747.745774021663237
99739.326145224869833
99727.598510231182445
99723.087028484442271
99720.783412674354622
99709.176710444313358
99686.403306401931331
99657.673638626481988
99625.749127178787603
99593.360622533844435
99571.095181987358956
99573.734197645055247
99597.757114536041627
99616.484740766318282
99610.023191792264697
99585.663479768976686
99565.168906316815992
99558.534393399299006
99558.586654168975656
99562.022689867400913
99573.982427400493179
99598.673277721216436
99623.402753277347074
99632.268464347929694
99619.543672810861608
99594.35693593378528
99572.013203178881668
99561.825606593192788
99572.569818465868593
99607.784029816408292
99664.858116486473591
99721.73151861455699
99756.709205153441872
99765.036317948644864
99756.43705790147942
99742.138552986070863
99726.413947544395342
99708.998471563972998
99692.240832514769863
99681.586774186784169
99679.04621049281559
99681.695444623212097
99684.176856978141586
99680.120533798559336
99662.844866462794016
99637.364395605312893
99614.135694739758037
99603.450281294106389
99604.911641945553129
99608.941716861416353
99608.315120589279104
99605.516108098105178
99607.760236510526738
99615.316051730900654
99620.661627070017857
99618.721930161991622
99610.300635900523048
99598.000304187153233
99581.59079331200337
99560.212920507619856
99537.127185561475926
99519.573173876458895
99511.535159464619937
99511.81203817667847
99516.556572793982923
99521.635739053439465
99525.684522850831854
99525.956458212400321
99519.410480433871271
99508.750374875176931
99501.875047064226237
99507.585723936324939
99530.385518260591198
99563.596297484473325
99593.32426922841114
99604.54031537094852
99591.300430805451469
99561.164963803443243
99530.435277944401605
99514.470547907927539
99517.3537977066444
99528.771644777603797
99530.491128626876161
99510.467432144811028
99471.909210014651762
99428.12360463400546
99393.444723835520563
99374.133645480120322
99370.398832264676457
99378.996687450708123
99396.848913181922399
99419.281621043744963
99437.536620040322305
99443.770906696809107
99435.870882622431964
99419.330480560805881
99402.666037915856577
99392.895539602730423
99393.503843493905151
99403.220294250073493
99418.428683876889409
99435.010995394564816
99448.157644733975758
99454.731749171027332
99454.045351006934652
99446.613435098624905
99433.625341075283359
99417.677472969749942
99401.299215013234061
99386.567360178858507
99373.245226071332581
99362.00629182792909
99354.565289267498883
99353.087168028170709
99359.853616369771771
99375.915698464072193
99398.633968826456112
99422.314739009787445
99441.134475805447437
99450.827078408212401
99451.135604890951072
99445.420676324967644
99438.136074796100729
99431.366457326104864
99423.51131157380587
99411.603439040554804
99394.489699371464667
99373.943690517218783
99353.73719301733945
99337.661009818519233
99327.1807153319387
99321.062663218239322
99337.257659989831154
99338.250362896011211
99336.319609529527952
99335.767837811145
99339.591317251848523
99347.581693080632249
99355.908461224767962
99359.517979335039854
99355.264914072395186
99344.301432851629215
99331.070681058394257
99320.812539002246922
99316.467582037541433
99318.090595494388253
99323.438256237612222
99329.755351475032512
99335.344421207293635
99339.672360891694552
99343.197418921103235
99346.902506813174114
99352.012347919284366
99359.46358398621669
99369.257679919552174
99380.568257674836786
99391.817324340852792
99402.263337267198949
99412.33706156387052
99423.487265330128139
99437.350436083885143
99453.7290061700769
99469.721421269860002
99480.812246166184195
99483.217959107438219
99475.689898930853815
99460.62686045456212
99443.035198068071622
99428.446988418319961
99420.988555117408396
99421.82502323485096
99429.378645715565654
99440.770821153302677
99452.729873978023534
99463.990766938455636
99474.466888687180472
99485.526951676729368
99497.95871830478427
99511.837986718906905
99525.29353842533601
99536.09339227086457
99541.601066620074562
99540.219445682669175
99532.321741350140655
99520.021602281209198
99507.478749518137192
99499.204579213386751
99497.997703768065549
99504.061414708558004
99514.677674781283713
99524.851137646764982
99529.249363611961599
99524.590232972390368
99511.237639249680797
99493.057096700766124
99475.537676557985833
99463.719281306679477
99460.439374684094219
99465.718235252425075
99477.415008919837419
99492.479679360665614
99507.907558546299697
99521.868882902781479
99533.143343654475757
99541.56107253220398
99546.722862844340852
99548.790173005589168
99547.817636593521456
99544.063289435391198
99538.300362107795081
99530.9065087838826
99522.392980349337449
99513.245023274997948
99504.243925142975058
99495.900271343576605
99488.784358139280812
99483.126359290559776
99478.600766185467364
99474.406758029785124
99469.362070053597563
99462.296832578940666
99452.433262848469894
99439.681522553582909
99424.53401907334046
99408.004370900787762
99391.419772671390092
99375.900886881077895
99362.492017411263078
99352.014977707702201
99345.250679533972288
99343.450751362019219
99347.01182716981566
99355.993306495278375
99369.008140125210048
99383.724024054768961
99397.308197882215609
99406.848200274282135
99410.85302934361971
99408.90761798202584
99402.617985126533313
99393.631296199891949
99384.114406758424593
99375.375313329248456
99367.846772923250683
99361.773349594033789
99357.119541139923967
99353.900536941087921
99352.527503899094881
99353.122663221758557
99355.06647558111581
99357.182770455634454
99358.199094941577641
99357.090850211578072
99353.297881786216749
99346.830951094685588
99338.162646104057785
99327.879793285319465
99316.415630427829456
99304.024826604887494
99291.061648627786781
99278.224870315258158
99266.76195676640782
99258.814220001033391
99256.871660137330764
99263.163882169566932
99278.652031080098823
99302.513108521437971
99331.922038857199368
99362.418221249885391
99389.271822395166964
99409.03278808054165
99420.453596732026199
99424.837656950898236
99425.202909398154588
99424.660924697382143
99425.367946486643632
99427.339106410538079
99428.844212970419903
99427.131117527038441
99419.956775655708043
99406.642124404083006
99388.476262457261328
99368.463900512302644
99350.106630097361631
99336.390219366221572
99328.827320619806414
99327.470054736884777
99331.309114058531122
99339.087293620890705
99350.18200082264957
99364.905640032360679
99384.218283052890911
99408.561513155262219
99437.199061120307306
99467.564529664276051
99495.805504328352981
99517.782990461302688
99530.31018293381203
99532.268017085356405
99524.747598982750787
99510.712094688002253
99494.377807428551023
99479.184208893202594
99467.358152699365746
99459.894338141384651
99456.225666100246599
99455.256321826498606
99455.662091912687174
99456.521771794985398
99457.61839792302635
99459.006811163839302
99460.817250808293466
99463.17939592032053
99466.184568936892902
99469.742229079143726
99473.664290859538596
99477.716084761574166
99481.782357503776439
99485.593844892180641
99488.927090928511461
99491.364850714962813
99492.457245160330785
99491.854003498228849
99489.392618316065636
99485.107318084381404
99479.397454799618572
99472.80875570513308
99465.829962033589254
99458.764588727062801
99451.746928394481074
99444.55733134719776
99437.178265863083652
99429.483649133922881
99421.72722631371289
99414.433036023008754
99408.366956201512949
99404.110820013796911
99402.051808477961458
99401.965270570522989
99403.112795762048336
99404.526922134595225
99405.324754385423148
99404.996715366447461
99403.544056048573111
99401.537668631717679
99400.264389786665561
99400.976965956215281
99404.365672908403212
99410.393381446585408
99417.854667711973889
99424.879243418967235
99429.195654985524016
99428.995731341274222
99423.002976943491376
99411.127690085064387
99394.336838061091839
99374.313208162406227
99353.386971972402534
99333.876525649320683
99317.834587521429057
99306.655001424820512
99301.004260082379915
99300.862350419993163
99305.638766718737315
99314.281615599291399
99325.755998672160786
99339.003967271943111
99353.122174027055735
99367.014478793629678
99379.664499245438492
99390.31990768070682
99398.413160325930221
99403.615184487949591
99405.749606904879329
99405.074609292641981
99402.518873967768741
99398.830185642087599
99394.97728417039616
99391.702020863245707
99389.437870184119674
99388.530824081899482
99389.087657041687635
99391.219223998661619
99394.895120206710999
99400.084183809551178
99406.817069313648972
99414.889770170906559
99487.04229935418698
99500.464192423169152
99326.005075282853795
99305.139246732855099
99513.229629318928346
99652.625697102921549
99605.763371758526773
99606.996636634372408
99651.792665957735153
99629.887025041127345
99608.375679501798004
99621.271567424628302
99630.31887813967478
99616.815846126279212
99559.607905058655888
99527.919423962812289
99564.030789258089499
99595.652743638769607
99588.650392272960744
99612.135144726009457
99677.242746395655558
99720.114527155456017
99727.301554306046455
99699.778398677517544
99644.503555030256393
99587.421076886108494
99553.096578637079801
99547.65438608401746
99550.083446641656337
99542.433417692605872
99536.886162208829774
99562.683565227838699
99625.116773491128697
99683.358189501639572
99710.507822032974218
99723.092504389031092
99738.62042732599366
99752.403109400431276
99757.225061876524705
99744.100843485168298
99691.980597218091134
99609.764246318067308
99549.483809025317896
99556.578545438082074
99611.921267522164271
99663.195109989057528
99682.782577907099039
99675.136987011370366
99657.124312236861442
99638.14062689403363
99632.663908843474928
99653.198790718102828
99693.187187511342927
99731.716000559055828
99753.974970151481102
99766.538159129660926
99780.663322120060911
99789.662499044279684
99782.638542696033255
99765.55587425052363
99748.674416930371081
99731.585049390923814
99702.776135631836951
99661.389252784079872
99624.872113976671244
99601.311310358549235
99586.855021520255832
99578.59286625655659
99580.531587144185323
99588.075012577697635
99592.452888171872473
99589.136766752853873
99584.71938005067932
99590.535864964025677
99605.893612320083776
99620.303358475401183
99628.837525156966876
99633.951428134867456
99638.365944138990017
99641.0995201398473
99637.984566039827769
99624.190273322426947
99601.788398143748054
99579.095806761470158
99569.285188259629649
99585.376947327065864
99632.685897283052327
99702.596505601526587
99770.598623147583567
99811.97838230925845
99813.639015853885212
99786.283562568220077
99750.324379826546647
99721.280452288076049
99704.386011436319677
99697.06143652551691
99694.576952095711022
99693.994045739047579
99693.414708336640615
99690.674951974884607
99680.186947029404109
99659.239277128319372
99633.536870746276691
99617.068621049402282
99620.574977679658332
99638.96508182612888
99654.218665431821137
99651.848287134125712
99635.052726733279997
99619.418153333652299
99617.016903366573388
99624.810197291822988
99631.606088284126599
99629.229868559152237
99615.488066391335451
99591.700023287776276
99561.516825316779432
99533.082593811821425
99514.788069992981036
99508.237715809620568
99510.401866441417951
99514.908229600565392
99520.503570122600649
99526.289716300336295
99530.737733252070029
99528.893000054362346
99519.091600805084454
99508.477824050511117
99507.441200368513819
99521.002224954980193
99545.978221746627241
99571.533500929625006
99585.27816296776291
99581.542511966763414
99564.359905336474185
99544.890666400417103
99534.644759810267715
99536.898668512978475
99542.891306023098878
99538.508220369461924
99516.09585820074426
99480.662039820570499
99444.977453196916031
99420.531790623674169
99411.455222522592521
99414.178571643016767
99424.04830006157863
99437.901975174201652
99451.05435072806722
99458.509749637465575
99455.971596530405805
99442.271176103517064
99422.028096973779611
99402.474118295227527
99389.961706925096223
99388.479359803459374
99399.106826059141895
99419.306217865989311
99442.389628557939432
99458.992592618713388
99462.400679387574201
99452.294881833338877
99433.445398654788733
99412.611520572027075
99394.602827186390641
99380.904851206156309
99369.224126130691729
99357.450034152439912
99344.761607036445639
99334.916651957464637
99334.220945543187554
99347.547081423675991
99375.25980434610392
99411.366221645163023
99445.289921947653056
99465.802944235692848
99468.084759088378632
99454.28726321317663
99433.859244912018767
99416.379987741020159
99406.750963992250036
99403.639365688402904
99401.823532057358534
99396.910453177406453
99388.091679297547671
99377.10932385729393
99366.171726222150028
99355.087606133034569
99342.235477109032217
99371.584208618107368
99372.083309142806684
99365.020799271922442
99355.219963342606206
99348.35259400200448
99346.963715572754154
99348.943165536271408
99349.800329215446254
99345.868660458712839
99336.638089463318465
99324.790932658142992
99314.643930447811726
99309.824836737243459
99311.986719731619814
99320.133128744375426
99331.613899983145529
99343.299657636103802
99352.537469536197023
99358.21799382926838
99361.426453524021781
99364.261483218797366
99369.383094312564936
99377.625866249669343
99388.171815461144433
99399.031565389566822
99408.761372555309208
99417.976982717416831
99428.734901937539689
99442.588314932509093
99458.928222126472974
99474.899225213521277
99486.201447351908428
99489.220819693888188
99483.107395035214722
99470.614571048456128
99456.692731128816376
99446.343318449158687
99442.444907776734908
99444.935279365090537
99451.515431588210049
99459.383490999840433
99466.824736405498697
99473.947408570995321
99482.279352980956901
99493.812357721952139
99508.764320767004392
99526.02584320709866
99542.14297465904383
99553.757916155489511
99557.877630050104926
99553.762269973667571
99542.76147907905397
99528.356447343685431
99515.328011144913035
99508.177850824795314
99509.418755997350672
99518.335022777653649
99530.954021923418622
99541.356496230873745
99544.070492939048563
99536.369924826532952
99519.093751930486178
99496.464941242171335
99474.505268571185297
99458.733074328105431
99452.619125322045875
99456.477316273056203
99468.239993408176815
99484.727950783460983
99502.024713612758205
99517.687863274099072
99530.36239370322437
99539.554061650822405
99545.374693645600928
99548.518400784159894
99549.046109059810988
99546.880368709607865
99541.127234451923869
99531.339569529824075
99518.081224208101048
99502.856635514006484
99487.933124767470872
99475.502417216062895
99467.177096390878432
99463.325995729086571
99462.582755941868527
99462.602316867443733
99460.877018094834057
99455.573107501506456
99446.055161080657854
99432.629494496708503
99416.308783872285858
99398.46267812338192
99380.496043599690893
99363.656248367915396
99349.037817972552148
99337.325118182430742
99329.48395712999627
99326.700408749384223
99330.280914674163796
99340.181405388895655
99355.519762411044212
99374.018946113821585
99392.545883148777648
99407.952105714721256
99418.111495783130522
99422.014513366433675
99420.396581129534752
99414.695214405772276
99406.749685755174141
99397.614193336761673
99387.854525438466226
99378.13472175685456
99369.116515135436202
99361.61810263087682
99356.555519146029837
99354.627095825926517
99355.657653744361596
99358.570186957207625
99361.662132819066755
99363.259359215793665
99362.140063623999595
99357.836029934507678
99350.618383311535581
99341.253506017994368
99330.553994447356672
99319.139905174917658
99307.738041459859232
99297.070130931548192
99288.530470646976028
99284.165767955229967
99285.940388108690968
99295.545624176564161
99313.317312467232114
99338.010617055915645
99366.476704678309034
99394.527600020737736
99418.239978786456049
99434.931989000993781
99444.180034164950484
99447.423403520180727
99447.753950668557081
99447.654333016078454
99448.59414917009417
99450.118508642946836
99450.264302769879578
99446.617345196238603
99437.484247679167311
99422.773303504916839
99404.286619314691052
99385.06604663041071
99368.378767984526348
99356.591003205088782
99350.638085637430777
99349.87611598012154
99353.149004550403333
99359.203832843020791
99367.76213667394768
99379.518917206733022
99395.683869984641206
99416.904263606615132
99442.581666973084793
99470.076722818295821
99495.335756044849404
99514.205980672995793
99523.866820673007169
99523.599695167300524
99514.958150098536862
99501.492082887954894
99487.394761401257711
99475.951315993690514
99469.120659227512078
99467.044161226542201
99468.489695610784111
99471.676925643332652
99474.925924322218634
99477.248545245922287
99478.541988166616648
99479.256616690399824
99479.999644174386049
99481.281668346127844
99483.318100325210253
99486.222996249402058
99489.8661083986226
99494.004644431333872
99498.30291893206595
99502.424980187613983
99505.952854323943029
99508.520616316280211
99509.704201140164514
99509.293317803138052
99507.277052370380261
99503.847092606141814
99499.341555226492346
99494.221567842643708
99488.941427633311832
99483.706907729865634
99478.35874184264685
99472.603426440895419
99466.130852237998624
99458.870707680849591
99451.006836704982561
99443.187905832659453
99436.138752882703557
99430.396739700809121
99426.236195877747377
99423.517595450830413
99421.691254706180189
99419.810417174259783
99417.119306616979884
99413.469765659930999
99409.349899187742267
99405.630529761168873
99403.335717095178552
99403.594687280390644
99407.222374260658398
99414.091826327232411
99423.070394867478171
99432.246199624220026
99439.250818149288534
99442.000929821253521
99439.054850583066582
99429.906060900262673
99415.25414572111913
99396.578350784388022
99376.126938833636814
99356.315128127622302
99339.202867888801848
99326.602649405147531
99319.5450181880733
99318.187078729984933
99322.084840391646139
99330.116673090597033
99341.018537993499194
99353.576433958383859
99366.611639041599119
99379.185592324152822
99390.595249972728197
99400.127401489036856
99407.18909335686476
99411.756254271153011
99413.79443814723345
99413.505999198401696
99411.478011543411412
99408.575312025714084
99405.617458468637778
99403.229085002312786
99401.936634340789169
99401.95196880165895
99403.386883847822901
99406.242694862477947
99410.584182343882276
99416.281827976592467
99423.261093593828264
99431.503584079473512
99440.755074579574284
99722.116300066089025
99649.020792375580641
99615.025514116525301
99642.874115314014489
99712.069090832665097
99792.846960742390365
99761.587917708180612
99732.642518580469186