/*--------------------------------*- C++ -*----------------------------------*\
  =========                 |
  \\      /  F ield         | OpenFOAM: The Open Source CFD Toolbox
   \\    /   O peration     | Website:  https://openfoam.org
    \\  /    A nd           | Version:  12
     \\/     M anipulation  |
\*---------------------------------------------------------------------------*/
FoamFile
{
    format      ascii;
    class       volScalarField;
    location    "0.015";
    object      pPrime2Mean;
}
// * * * * * * * * * * * * * * * * * * * * * * * * * * * * * * * * * * * * * //

dimensions      [2 -2 -4 0 0 0 0];

internalField   nonuniform List<scalar> 
75962
(
1299823.8165054321289
1278976.5726528167725
1270322.4695205688477
1264568.8820610046387
1260291.9827556610107
1256757.5019130706787
1253510.8471488952637
1250389.0141735076904
1247390.2074413299561
1244493.095874786377
1241671.6654510498047
1238897.4351234436035
1236171.3573875427246
1233538.3974590301514
1231086.0727291107178
1228841.3643379211426
1226771.5502052307129
1224846.465856552124
1223018.0058326721191
1221235.6493301391602
1219472.6221656799316
1217710.8277530670166
1215963.1597099304199
1214250.4484825134277
1212613.5066108703613
1211097.4492244720459
1209723.6858425140381
1208508.9320278167725
1207462.5015830993652
1206558.2871112823486
1205758.900728225708
1205036.2249526977539
1204362.1044139862061
1203709.9035949707031
1203058.4747772216797
1202392.568733215332
1201700.9455490112305
1200985.1546249389648
1200244.5386295318604
1199490.2263679504395
1198735.7309703826904
1197982.2662563323975
1197221.9806499481201
1196444.8403129577637
1195638.1029624938965
1194790.8805618286133
1193897.1426963806152
1192954.7619094848633
1191967.5257892608643
1190936.5442714691162
1189859.9685401916504
1188740.2141170501709
1187576.5931434631348
1186368.7060985565186
1185126.8636379241943
1183861.6643295288086
1182580.4364795684814
1181292.4077262878418
1180007.2200260162354
1178737.4658718109131
1177498.9376888275146
1176301.821849822998
1175146.8199138641357
1174022.4268169403076
1172913.1242275238037
1171809.6148796081543
1170706.7745532989502
1169605.3501739501953
1168507.4547328948975
1167410.4680576324463
1166309.4875526428223
1165196.9539623260498
1164061.0302772521973
1162899.2544918060303
1161719.1146049499512
1160527.3315982818604
1159327.9939365386963
1158121.7491664886475
1156911.7570953369141
1155697.58522605896
1154477.6740684509277
1153256.1175117492676
1152039.6102046966553
1150831.4073162078857
1149629.2788581848145
1148429.9214038848877
1147232.8728485107422
1146042.9864768981934
1144868.3749141693115
1143717.0413055419922
1142591.9936256408691
1141490.3906726837158
1140407.2887935638428
1139342.014720916748
1138301.4585018157959
1137294.0429153442383
1136321.3328399658203
1135374.655294418335
1134443.6548690795898
1133519.5447311401367
1132597.5414695739746
1131676.6489028930664
1130758.1314907073975
1129842.0327072143555
1128925.0508270263672
1128004.5903606414795
1127078.1928329467773
1126141.5319919586182
1125188.9631843566895
1124215.3615474700928
1123217.2275085449219
1122194.8453979492188
1121149.0724067687988
1120078.0753746032715
1118976.7724952697754
1117839.0849094390869
1116662.8611087799072
1115448.7349510192871
1114196.4983959197998
1112905.1610908508301
1111574.3416175842285
1110206.0915184020996
1108806.6075897216797
1107382.9707870483398
1105939.3286247253418
1104477.9096508026123
1103001.3577060699463
1101514.3523979187012
1100022.5368022918701
1098531.7208309173584
1097050.226900100708
1095588.9414463043213
1094157.1298675537109
1092759.3671417236328
1091394.1101398468018
1090057.5539054870605
1088748.2306442260742
1087468.6653842926025
1086224.4497241973877
1085020.228572845459
1083855.8880615234375
1082727.1335983276367
1081627.3619480133057
1080548.5564460754395
1079482.4965782165527
1078421.9870567321777
1077363.0601806640625
1076303.4954166412354
1075240.6148166656494
1074170.1922264099121
1073086.1022281646729
1071981.8365592956543
1070853.4506053924561
1069700.1888980865479
1068522.9572868347168
1067321.9650173187256
1066097.4296245574951
1064851.138692855835
1063586.4132976531982
1062305.6980724334717
1061008.3647079467773
1059691.0348625183105
1058352.3023719787598
1056996.3765602111816
1055630.9159240722656
1054260.6967506408691
1052885.568042755127
1051503.2008533477783
1050115.2026615142822
1048728.9539623260498
1047352.2635078430176
1045987.0604000091553
1044629.8487110137939
1043277.7108211517334
1041932.9335136413574
1040602.5809440612793
1039295.1956615447998
1038016.7598857879639
1036768.8270988464355
1035549.5510883331299
1034354.7694664001465
1033180.1848621368408
1032023.305757522583
1030885.3810749053955
1029770.2104434967041
1028680.0576610565186
1027612.6406841278076
1026561.9251136779785
988553.7669506072998
987620.86067390441895
986683.05624389648438
985736.58376884460449
984780.35322952270508
983816.50285911560059
982847.35065078735352
981871.70059394836426
980885.12634468078613
979883.73402976989746
978867.12520790100098
977838.74082183837891
976804.08489990234375
975768.27481651306152
974733.91712951660156
973699.60077095031738
972660.76248168945312
971612.23373222351074
970550.18928909301758
969472.96580123901367
968380.7637882232666
967274.35053825378418
966154.49252510070801
965022.22661781311035
963880.16382598876953
962732.50099182128906
961583.14800262451172
960434.00173568725586
959285.36521911621094
958138.27953910827637
956995.37312889099121
955859.90787124633789
954735.08407211303711
953624.16131591796875
952530.5429630279541
951456.99571418762207
950404.63735198974609
949371.42319107055664
948352.24186706542969
947340.43698501586914
946331.10916709899902
945323.78598022460938
944322.39450073242188
943332.40410423278809
942358.12958145141602
941400.35725784301758
940456.20376586914062
939520.68600654602051
938589.43385696411133
937661.57797241210938
936740.11441612243652
935830.16365432739258
934935.32077789306641
934055.03084373474121
933184.15372657775879
932314.52229118347168
931438.32902336120605
930551.49202156066895
929655.08818435668945
928754.0115966796875
927853.04473304748535
926953.43599319458008
926052.57708930969238
925146.34864807128906
924232.20182991027832
923310.36623764038086
922382.69327354431152
921451.14815902709961
920516.27040481567383
919577.39216613769531
918634.11677360534668
917687.1669807434082
916737.68405914306641
915785.44350624084473
914828.75023651123047
913865.61277389526367
912894.73359489440918
911916.12750053405762
910930.80504035949707
909940.63486671447754
908947.53059768676758
907951.94524574279785
906951.64963150024414
905941.87970924377441
904917.71608924865723
903876.44811820983887
902818.96023368835449
901749.23833847045898
900672.20006942749023
899590.86201477050781
898504.52799797058105
897410.51351165771484
896307.34365081787109
895197.20783615112305
894085.26699829101562
892976.85068893432617
891874.28392028808594
890775.75986099243164
889677.14305877685547
888575.22891807556152
887470.28672409057617
886366.13297843933105
885268.09526062011719
884181.15164184570312
883108.52437019348145
882050.59355735778809
881005.3770866394043
879969.98054122924805
878942.29024696350098
877921.22627067565918
876906.45514297485352
875898.504150390625
874899.35262870788574
873911.84290885925293
872938.03166198730469
871977.84385871887207
871029.28186416625977
870090.16707420349121
869160.01810455322266
868240.26399040222168
867332.71742248535156
866437.72490501403809
865553.79258728027344
864678.88724136352539
863811.43094635009766
862950.30980682373047
862094.05573463439941
861240.2381420135498
860385.87406158447266
859528.64205169677734
858668.44179344177246
857807.71580505371094
856949.99799537658691
856097.66348075866699
855249.9722728729248
854403.36060523986816
853552.7025318145752
852692.7510871887207
851818.81314468383789
850927.53075218200684
850017.70668411254883
849090.91286659240723
848151.35445785522461
847204.49911880493164
846255.14945793151855
845305.74289321899414
844356.09380531311035
843404.19869995117188
842447.88157272338867
841485.49884414672852
840515.60764122009277
839536.27025032043457
838545.39079284667969
837541.83812141418457
836526.8892822265625
835504.17842292785645
834478.14929580688477
833452.67006683349609
832430.61837196350098
831414.48573684692383
830406.81365013122559
829410.19860458374023
828426.07659912109375
827453.7531909942627
826490.26786231994629
825531.98009872436523
824576.35564231872559
823622.80827903747559
822672.38271713256836
821726.83376693725586
820787.90449905395508
819857.20808219909668
818936.36177444458008
818026.89073944091797
817129.89297485351562
816245.85128784179688
815374.36960792541504
814514.61752128601074
813665.67081832885742
812826.94910621643066
811998.35016441345215
811179.95153427124023
810371.53343772888184
809572.18173599243164
808780.0757942199707
807992.58625793457031
807206.79499244689941
806420.38017463684082
805632.4720516204834
804843.98541450500488
804056.91604232788086
803272.86957740783691
802492.05837821960449
801713.46738243103027
800936.02279853820801
800159.72465324401855
799385.81114768981934
798615.8255443572998
797850.38423156738281
797088.39057731628418
796327.27926063537598
795563.98570823669434
794796.03108406066895
794022.39499855041504
793243.78606605529785
792462.03322601318359
791678.98760223388672
790895.42787742614746
790110.48012351989746
789321.69866752624512
788525.70858192443848
787719.29394912719727
786900.61410522460938
786069.98639678955078
785229.54569435119629
784381.82330131530762
783528.17542839050293
782668.24484825134277
781800.48092842102051
780923.35610961914062
780036.25034523010254
779139.9542121887207
778236.83036994934082
777330.58896827697754
776425.59527778625488
775525.74246215820312
774633.30563926696777
773748.45163726806641
772869.32835006713867
771992.57673454284668
771114.50299453735352
770232.63680267333984
769346.98980712890625
768460.39248275756836
767577.48834228515625
766702.7923526763916
765838.94057464599609
764985.89215850830078
764141.47261810302734
763302.6165943145752
762466.5498161315918
761631.72514724731445
760798.25836753845215
759967.93367576599121
759143.57525444030762
758327.90376091003418
757522.51520347595215
756727.44143104553223
755941.53442001342773
755163.18297958374023
754390.88932037353516
753623.52431678771973
752860.51614570617676
752101.81323051452637
1311238.9800853729248
1286661.1958293914795
1276307.8528919219971
1268793.4450874328613
1263137.0639209747314
1258717.2937602996826
1255048.6588287353516
1251802.6372356414795
1248757.5102348327637
1245775.0142917633057
1242793.0133609771729
1239844.3311805725098
1236953.9289054870605
1234145.3632221221924
1231473.6823329925537
1228986.4633178710938
1226705.8340148925781
1224614.9052448272705
1222702.6440162658691
1220939.22487449646
1219268.7938060760498
1217639.7299041748047
1216026.6750316619873
1214425.209810256958
1212836.4879341125488
1211282.2359447479248
1209796.7006664276123
1208407.8735446929932
1207156.5430221557617
1206066.1173191070557
1205134.4922103881836
1204349.5235176086426
1203686.2855606079102
1203100.530403137207
1202551.7919654846191
1202008.2958507537842
1201443.2189140319824
1200836.7066020965576
1200175.3147525787354
1199455.7549209594727
1198688.7966346740723
1197883.7549152374268
1197043.3324375152588
1196171.8011131286621
1195270.215238571167
1194335.1283664703369
1193365.5210800170898
1192363.0495376586914
1191326.650260925293
1190254.2002105712891
1189143.2158393859863
1187992.4901313781738
1186807.1741065979004
1185588.828254699707
1184339.5436611175537
1183061.7949542999268
1181761.5410118103027
1180446.0387153625488
1179127.2572612762451
1177823.8460693359375
1176557.1430511474609
1175346.6362247467041
1174198.4908847808838
1173102.8549041748047
1172043.7735137939453
1171006.2972412109375
1169981.8313274383545
1168965.9390449523926
1167955.6558017730713
1166944.7126197814941
1165922.9352035522461
1164874.7443199157715
1163788.84739112854
1162668.3668975830078
1161525.9110908508301
1160370.8446273803711
1159204.5208721160889
1158025.1238708496094
1156831.4860153198242
1155623.4499320983887
1154403.1836051940918
1153179.3959007263184
1151963.8115634918213
1150761.6286792755127
1149567.3854808807373
1148373.3310241699219
1147179.4244384765625
1145993.9907531738281
1144827.5698680877686
1143687.9676551818848
1142577.591381072998
1141492.2227973937988
1140424.7141590118408
1139371.740385055542
1138338.2307262420654
1137333.1245975494385
1136359.6623210906982
1135412.0432090759277
1134479.9578113555908
1133552.6537799835205
1132622.3026275634766
1131685.7662105560303
1130745.76100730896
1129805.9150943756104
1128866.1107006072998
1127924.117073059082
1126977.3342475891113
1126022.4368629455566
1125055.4269695281982
1124071.734167098999
1123067.6320400238037
1122040.5115261077881
1120988.2328186035156
1119907.6042346954346
1118795.0364360809326
1117648.9408645629883
1116470.9990482330322
1115261.5222396850586
1114015.8405990600586
1112728.9513378143311
1111399.1562232971191
1110029.476598739624
1108627.1349086761475
1107200.0180206298828
1105753.6060848236084
1104289.0886878967285
1102806.5830135345459
1101308.8664264678955
1099801.7546043395996
1098293.3235950469971
1096793.9321193695068
1095313.6150856018066
1093860.3087120056152
1092436.6883945465088
1091041.0024127960205
1089672.3249454498291
1088333.1002578735352
1087027.8978958129883
1085761.0981578826904
1084535.1462421417236
1083348.612850189209
1082197.6839599609375
1081077.6998195648193
1079981.3591384887695
1078898.4947967529297
1077820.3615436553955
1076743.7445335388184
1075669.4615097045898
1074596.8751392364502
1073521.774715423584
1072437.2291049957275
1071336.1268119812012
1070214.3491249084473
1069071.6644535064697
1067908.8410377502441
1066725.0088768005371
1065519.5973491668701
1064294.7126197814941
1063054.9130516052246
1061803.6246871948242
1060539.780725479126
1059258.841495513916
1057958.2588844299316
1056640.9559135437012
1055313.1779270172119
1053979.3861808776855
1052639.9657688140869
1051291.824800491333
1049934.1127586364746
1048571.2031497955322
1047209.5783958435059
1045852.9526405334473
1044502.2843284606934
1043158.3950576782227
1041824.9223899841309
1040507.2270240783691
1039210.2416820526123
1037937.5285148620605
1036690.5694885253906
1035468.6414394378662
1034269.1596279144287
1033089.2256145477295
1031926.6633548736572
1030781.8795413970947
1029658.3529930114746
1028559.1105003356934
1027483.1089992523193
1026424.9320545196533
1025377.9381580352783
989432.79593276977539
988495.50173377990723
987559.59295463562012
986619.41276931762695
985670.35249328613281
984711.48392105102539
983745.40996170043945
982774.9875545501709
981798.86016082763672
980811.70766067504883
979808.87371063232422
978789.74338912963867
977758.84147834777832
976723.7801685333252
975690.82931900024414
974662.06856727600098
973634.30982208251953
972600.76728057861328
971555.15403366088867
970493.55973434448242
969415.32331085205078
968322.38428688049316
967217.29679679870605
966101.78226661682129
964976.67471122741699
963842.96859741210938
962702.76570320129395
961558.64277458190918
960412.10092163085938
959263.53340148925781
958114.40824317932129
956967.5441780090332
955826.78423118591309
954696.08011436462402
953579.67234420776367
952482.10960960388184
951406.80921745300293
950354.20716094970703
949320.93914222717285
948300.4768009185791
947285.58752632141113
946272.00080299377441
945260.2155933380127
944255.0108642578125
943261.96214485168457
942284.44961929321289
941321.71318054199219
940369.29885101318359
939421.35960388183594
938473.82597541809082
937526.7210693359375
936584.6507740020752
935654.8650074005127
934742.81395721435547
933848.38045692443848
932965.23240089416504
932083.68378829956055
931195.23679351806641
930296.10221099853516
929387.67065620422363
928473.67404365539551
927557.09015274047852
926637.9868335723877
925714.36333656311035
924784.50411605834961
923848.16117668151855
922906.39935111999512
921960.78812599182129
921012.51416397094727
920061.84409523010254
919108.12052345275879
918150.96377182006836
917191.47396087646484
916231.3458080291748
915270.65849113464355
914307.07454299926758
913337.2361946105957
912358.94729804992676
911372.07929420471191
910378.37505340576172
909380.6968994140625
908381.55768203735352
907381.35379600524902
906377.21025657653809
905363.30175590515137
904333.83416557312012
903286.07250213623047
902221.7767333984375
901145.61221504211426
900062.57257270812988
898975.52616691589355
897883.85470771789551
896784.90821075439453
895677.09738731384277
894562.21613121032715
893445.66852760314941
892333.27938842773438
891228.05315399169922
890128.32116317749023
889029.60971069335938
887928.2866382598877
886824.34073638916016
885721.73616027832031
884626.20430374145508
883542.81499481201172
882474.3586483001709
881420.94902801513672
880380.84040641784668
879351.95125007629395
878333.28534126281738
877324.46117401123047
876324.88930892944336
875333.8002986907959
874351.38969612121582
873379.22382164001465
872419.11623764038086
871471.70239448547363
870535.67929077148438
869609.11027526855469
868691.68560409545898
867785.36104011535645
866892.66279602050781
866014.25083160400391
865148.33358764648438
864292.04110527038574
863443.03751564025879
862599.96787071228027
861761.4917106628418
860925.44882011413574
860088.93121147155762
859249.62453460693359
858406.90832901000977
857562.29884719848633
856718.52230453491211
855877.63707733154297
855039.75558853149414
854202.7452507019043
853362.91028594970703
852515.75822830200195
851656.50202178955078
850781.19058036804199
849887.48614311218262
848975.61148071289062
848048.56921768188477
847111.04980278015137
846167.65070343017578
845221.28039360046387
844272.71890449523926
843321.29524040222168
842365.98223686218262
841405.59970855712891
840438.32340812683105
839461.74104881286621
838473.68343734741211
837473.4201545715332
836462.60244560241699
835444.75426864624023
834424.08716773986816
833404.46388816833496
832389.27145385742188
831381.46526718139648
830383.28704261779785
829396.00642967224121
828419.35197639465332
827451.58811569213867
826490.27459716796875
825533.58612632751465
824580.94162178039551
823632.99172019958496
822690.58965110778809
821754.20120620727539
820823.99252891540527
819900.39202117919922
818984.47587585449219
818077.78616714477539
817181.94622993469238
816298.04756736755371
815426.20261192321777
814565.86490058898926
813716.09324645996094
812876.20794868469238
812045.89801216125488
811224.93911743164062
810412.78397178649902
809608.19232940673828
808809.29418182373047
808013.70536804199219
807218.7712287902832
806422.24994277954102
805623.23836517333984
804822.85361480712891
804023.75604057312012
803228.63298225402832
802438.66940498352051
801653.06694221496582
800869.93147087097168
800087.72397232055664
799306.3382396697998
798526.98870468139648
797751.04642486572266
796978.81365394592285
796208.98544883728027
795439.09468078613281
794666.72676277160645
793890.53788757324219
793110.54133224487305
792327.62469863891602
791542.64616584777832
790755.72281837463379
789965.89538764953613
789171.11322212219238
788368.56659698486328
787555.30189323425293
786729.36638259887695
785890.90508460998535
785042.13498497009277
784186.03104782104492
783324.63044929504395
782458.05106544494629
781584.65485572814941
780702.12315368652344
779808.80856132507324
778904.58319664001465
777991.09786224365234
777071.55216407775879
776150.23702621459961
775231.89646911621094
774320.73416328430176
773419.25534248352051
772527.07368278503418
771640.70419883728027
770754.87648773193359
769864.96135139465332
768969.02747917175293
768068.5087776184082
767167.40385246276855
766270.48535537719727
765381.73872947692871
764503.37481117248535
763635.62883758544922
762777.07639312744141
761925.26775932312012
761077.40745735168457
760231.23648071289062
759385.93248176574707
758542.54509162902832
757703.6790828704834
756872.24540519714355
756050.36324119567871
755238.96702194213867
754438.14596939086914
753647.55818367004395
752866.69034957885742
752094.7606201171875
751330.58651924133301
1292205.0739116668701
1276234.9786624908447
1269075.2985687255859
1262969.693811416626
1257958.1054344177246
1253950.7556495666504
1250735.8996391296387
1248064.7302074432373
1245685.4025917053223
1243404.3159599304199
1241091.195837020874
1238688.6726055145264
1236203.1345844268799
1233690.4323139190674
1231179.2857398986816
1228727.7479457855225
1226396.9214954376221
1224225.6335353851318
1222232.2973823547363
1220402.830753326416
1218701.2550010681152
1217077.7421054840088
1215486.6740989685059
1213923.7545757293701
1212397.0181732177734
1210921.7617073059082
1209510.7858982086182
1208178.1437110900879
1206942.8554763793945
1205820.6625995635986
1204828.3620624542236
1203965.7152290344238
1203231.798360824585
1202595.6476631164551
1202010.9737091064453
1201449.1663455963135
1200893.6332149505615
1200327.2876491546631
1199734.8496513366699
1199089.6751270294189
1198376.6606864929199
1197600.8098545074463
1196767.0485401153564
1195879.0489654541016
1194946.2174034118652
1193970.4282245635986
1192952.9068145751953
1191904.3095932006836
1190826.5114688873291
1189711.0449752807617
1188554.6908512115479
1187361.6704196929932
1186141.6113224029541
1184900.9260482788086
1183639.8279361724854
1182353.3769607543945
1181039.1319618225098
1179702.6162185668945
1178357.8832740783691
1177027.7349796295166
1175732.4244022369385
1174487.213939666748
1173300.1507968902588
1172169.9882278442383
1171084.9790668487549
1170032.5231895446777
1169005.924783706665
1168006.1358070373535
1167029.8024234771729
1166065.2256507873535
1165097.837869644165
1164106.1736316680908
1163076.9377059936523
1162015.9897289276123
1160936.9967784881592
1159849.5257759094238
1158751.2938404083252
1157637.3979873657227
1156501.6478996276855
1155340.1974201202393
1154154.5737495422363
1152955.6232738494873
1151757.8549880981445
1150566.884204864502
1149377.4196395874023
1148182.9281978607178
1146984.9085235595703
1145794.6168766021729
1144624.1937236785889
1143480.9519062042236
1142368.3046741485596
1141284.0713405609131
1140220.1393089294434
1139170.6812973022461
1138137.6400814056396
1137130.066577911377
1136154.1892585754395
1135204.6057643890381
1134268.8096542358398
1133334.0751399993896
1132392.3651103973389
1131442.2033977508545
1130486.3998050689697
1129530.2852783203125
1128576.1024150848389
1127620.3419609069824
1126657.3589382171631
1125684.9149208068848
1124703.9154319763184
1123713.4783000946045
1122709.4318141937256
1121685.021240234375
1120634.9629726409912
1119554.5389270782471
1118441.3338394165039
1117297.291316986084
1116127.5326023101807
1114932.3600902557373
1113704.563159942627
1112434.74391746521
1111119.5371742248535
1109762.9631690979004
1108372.0167465209961
1106953.887228012085
1105513.7406063079834
1104053.1872024536133
1102571.9200420379639
1101071.7112331390381
1099558.2852344512939
1098040.7233238220215
1096529.5168495178223
1095034.896842956543
1093564.2056140899658
1092119.1106929779053
1090698.6457290649414
1089303.4648685455322
1087937.4710121154785
1086605.8990345001221
1085311.9400997161865
1084057.6078433990479
1082842.5717334747314
1081663.8099193572998
1080517.0440063476562
1079394.8988227844238
1078286.4097347259521
1077182.894172668457
1076082.3348999023438
1074988.1416778564453
1073901.5951290130615
1072818.5905075073242
1071731.0726337432861
1070631.1304035186768
1069515.2480850219727
1068383.2720565795898
1067235.4849281311035
1066070.8492908477783
1064889.4804553985596
1063694.2688941955566
1062489.7344264984131
1061278.6713943481445
1060059.1498756408691
1058826.280876159668
1057577.7025814056396
1056315.5040245056152
1055043.7952518463135
1053764.9697551727295
1052477.5236396789551
1051177.333215713501
1049862.0907764434814
1048534.2153034210205
1047199.9818019866943
1045865.193416595459
1044534.4126014709473
1043211.3325576782227
1041898.7581157684326
1040598.5712356567383
1039312.0824851989746
1038041.6228523254395
1036790.0628643035889
1035559.2842693328857
1034349.6156558990479
1033159.9051055908203
1031987.6532001495361
1030832.0083961486816
1029695.0835628509521
1028580.1314640045166
1027487.3933563232422
1026413.0160884857178
1025351.684326171875
989368.91786193847656
988423.20977401733398
987480.00930786132812
986531.79083061218262
985573.05467796325684
984603.5294017791748
983627.40288734436035
982648.75052070617676
981666.6721305847168
980675.38739967346191
979669.26051330566406
978646.97461128234863
977612.93114852905273
976574.83561515808105
975539.46825408935547
974509.01047897338867
973480.03932189941406
972445.79965782165527
971399.48558616638184
970336.99555969238281
969258.05886840820312
968165.40604209899902
967063.05096626281738
965954.2579174041748
964840.66088676452637
963722.3038501739502
962599.01597213745117
961471.02475357055664
960338.77399253845215
959202.76004409790039
958064.55237197875977
956927.15266990661621
955794.47372627258301
954670.61711120605469
953559.64300537109375
952465.66281318664551
951392.12858390808105
950339.48377990722656
949303.91460418701172
948278.40005874633789
947256.39958763122559
946235.46536445617676
945217.54982948303223
944207.49518775939941
943209.97403526306152
942226.85264015197754
941255.45683288574219
940289.89399337768555
939324.30115699768066
938355.73178482055664
937386.0007438659668
936421.18038558959961
935469.47594451904297
934536.99308204650879
933623.51303863525391
932721.88827705383301
931821.87697982788086
930915.38735961914062
929999.60906600952148
929076.03726196289062
928146.88842582702637
927212.66697311401367
926272.60209083557129
925326.29030990600586
924374.58174324035645
923418.76879119873047
922459.65011405944824
921497.69417572021484
920533.24954032897949
919566.56348991394043
918597.76208114624023
917626.93869018554688
916655.31085777282715
915684.41816520690918
914714.240234375
913742.17847633361816
912764.53093910217285
911779.15061187744141
910786.05455207824707
909787.34137153625488
908785.83134269714355
907783.73370552062988
906780.76207160949707
905773.56023216247559
904756.44879913330078
903724.16910934448242
902674.67488288879395
901609.9577522277832
900534.17551231384277
899451.32193565368652
898363.59049797058105
897270.81720161437988
896171.39620780944824
895064.34089279174805
893951.02008247375488
892835.74164962768555
891724.05176544189453
890619.47802543640137
889521.41454124450684
888426.05405426025391
887329.77487754821777
886232.50162124633789
885138.03151702880859
884051.63193511962891
882977.33489990234375
881916.58904838562012
880868.92351913452148
879833.41870307922363
878810.00995635986328
877799.50689315795898
876802.26256561279297
875817.0507640838623
874841.55305099487305
873874.41277122497559
872916.37317085266113
871969.61037826538086
871035.7250862121582
870114.27630043029785
869203.67611503601074
868303.22875595092773
867414.06004905700684
866538.16334342956543
865676.16585159301758
864826.59145545959473
863986.80490303039551
863154.46047782897949
862328.01102828979492
861505.55146217346191
860684.42221450805664
859861.75613212585449
859035.6748218536377
858205.86602973937988
857373.37126922607422
856539.81053733825684
855706.54980087280273
854874.27723693847656
854042.35530471801758
853208.74990463256836
852370.31988906860352
851522.81144905090332
850661.7740535736084
849783.56105422973633
848886.72436141967773
847972.92378425598145
847046.16194915771484
846110.96312141418457
845170.63528633117676
844226.62150192260742
843279.03219604492188
842327.21438980102539
841369.76101875305176
840404.31915283203125
839428.52837371826172
838441.33508682250977
837443.74930572509766
836438.59867477416992
835429.36728096008301
834419.32389068603516
833411.35090827941895
832408.30034637451172
831412.79815292358398
830426.48943901062012
829449.50202560424805
828480.4182243347168
827517.0932559967041
826557.74866676330566
825601.92917251586914
824650.58135986328125
823705.2707405090332
822767.07848358154297
821836.20347785949707
820912.2077579498291
819994.55852508544922
819083.02697944641113
818178.07109260559082
817280.8299503326416
816392.81804656982422
815515.39985466003418
814649.24277305603027
813794.17148971557617
812949.40177154541016
812113.71628379821777
811285.85398483276367
810464.58547782897949
809648.63287162780762
808836.83541488647461
808027.91904067993164
807220.21799278259277
806412.01130867004395
805602.44370079040527
804792.27964210510254
803983.78042411804199
803179.46549034118652
802380.77077865600586
801587.3115177154541
800797.3424129486084
800008.82518005371094
799220.46157646179199
798432.20390129089355
797644.89258003234863
796859.47929954528809
796076.29600524902344
795294.79475021362305
794513.85979080200195
793732.30047988891602
792949.29712295532227
792164.26639366149902
791376.61567497253418
790585.62814903259277
789790.43556022644043
788989.71444511413574
788181.33371734619141
787362.63031387329102
786531.51875686645508
785687.71674346923828
784833.11396598815918
783970.68949890136719
783102.77110862731934
782229.77341079711914
781350.15192031860352
780461.47085380554199
779561.83133888244629
778650.91273307800293
777730.05360221862793
776801.70053291320801
775869.00701713562012
774936.02987861633301
774007.55609893798828
773087.9837646484375
772179.19208908081055
771279.27785110473633
770383.30650329589844
769485.66874694824219
768582.65834808349609
767673.70273399353027
766760.97818565368652
765848.1304931640625
764939.02094459533691
764036.87176322937012
763143.84727096557617
762260.90049171447754
761387.67184638977051
760522.47144508361816
759662.6967658996582
758805.93574333190918
757951.16180801391602
757099.23767280578613
756252.32100868225098
755412.6812686920166
754581.89688301086426
753760.86467933654785
752950.32051849365234
752151.16089057922363
751364.07199859619141
750588.84618186950684
749823.9284839630127
1304898.0813617706299
1282857.4762554168701
1272999.8679809570312
1265366.4358463287354
1259052.3493003845215
1253874.2464408874512
1249692.1324405670166