/*--------------------------------*- C++ -*----------------------------------*\
  =========                 |
  \\      /  F ield         | OpenFOAM: The Open Source CFD Toolbox
   \\    /   O peration     | Website:  https://openfoam.org
    \\  /    A nd           | Version:  12
     \\/     M anipulation  |
\*---------------------------------------------------------------------------*/
FoamFile
{
    format      ascii;
    class       volScalarField;
    location    "0.015";
    object      T;
}
// * * * * * * * * * * * * * * * * * * * * * * * * * * * * * * * * * * * * * //

dimensions      [0 0 0 1 0 0 0];

internalField   nonuniform List<scalar> 
75962
(
299.64956351668018897
299.72877493208528676
299.91760651488709755
300.01605766240794537
300.08448301551453596
300.05514506261323504
299.89810764146255906
299.7538887668461598
299.6917236791246637
299.68957710420772855
299.72902602384596094
299.73459048657184667
299.71023218997515869
299.7262252878301183
299.77451968454357711
299.79309984043425175
299.76410948619655983
299.70071956142675162
299.69264658100127008
299.80680624396461553
299.96595730530742685
300.01571584215452049
299.89781104130861422
299.69566167628403264
299.5181235648119582
299.4196987452176586
299.41812512231103938
299.48681963916192217
299.56338789177544868
299.59973943312922984
299.58241758578526515
299.51974300446403277
299.4335174391742953
299.37867448409519966
299.40363292394744121
299.5049210837244118
299.62142462661864784
299.69089070871592639
299.69409058665905832
299.64293058871305675
299.56418663037322858
299.48840343294818922
299.43423581011944634
299.40654399404672859
299.38973571628582704
299.37596586599073589
299.35912339530358395
299.32537059797755319
299.27474685159353385
299.23897172225099439
299.23285595197290831
299.26544622366048998
299.34407574492166759
299.45950398064695719
299.57532476316703196
299.65173691387963117
299.68060537697255086
299.67528388813667561
299.64371557057324935
299.58716901757031792
299.51874937407774269
299.45257869453865851
299.40120621067075035
299.37333449191635282
299.36588802791544595
299.36348585231201014
299.34866150628965897
299.32212600834850491
299.29814889482389617
299.2864043345009577
299.27820377628086135
299.26496050956825457
299.26173749424458492
299.29086574083703454
299.34969187556367842
299.40766760771998634
299.43786529111645223
299.44030904045172292
299.42700719872260606
299.40389051679125032
299.3642821675733785
299.31170933125986267
299.26506371323768008
299.24518273963235515
299.25789671175851936
299.29091224780228231
299.32721447499767464
299.35316131830586528
299.36211431717219966
299.35564003406159372
299.35225912972407514
299.37475030490213612
299.425743371101305
299.4832521538905894
299.52040706808077175
299.52468883715124548
299.49957726323867746
299.45360981538999567
299.39665436705524826
299.33996741712303447
299.29626257467339201
299.2755434390062419
299.27831020352493852
299.29880731940801297
299.32328528629562925
299.33513615492728377
299.32051667920609361
299.27999920800107247
299.22463450149047048
299.17028306504482771
299.12546908797730794
299.0907148374751614
299.06748067201056074
299.05824613087713715
299.06131827223106256
299.06826443275991778
299.0690060128978871
299.05975388053440156
299.04568464493871716
299.03457428082839442
299.02985062616204459
299.03022306394194629
299.02926982191513616
299.02047131569213434
298.99759356737382632
298.95900994217555535
298.90888840116423353
298.85722020651758157
298.81511682068776281
298.79007599704021914
298.78090889882622605
298.77824353093126319
298.77035964981496363
298.7498817938081288
298.71879955668072171
298.68764158245284079
298.66725913905133893
298.65999045590865535
298.65764908315003368
298.64656486239579181
298.61745959733724476
298.57254307336199872
298.52183450940947296
298.47514811919262456
298.43528450369956317
298.40036151097706352
298.36802402448239491
298.3378202622454296
298.31101894407515829
298.28655680648756743
298.26282965150380733
298.24063808250838292
298.22433764686468294
298.2188295028827838
298.22698930855227673
298.24689647155508965
298.27235498753634602
298.29748069221699325
298.31857851712794627
298.33482205476008176
298.34739543333108713
298.35682512293340096
298.3616110168733826
298.35945272096938652
298.35070972944652112
298.33752298717058693
298.32279108039148241
298.30846954455927289
298.29524819823200232
298.28231631984158412
298.26947573319313278
298.25769945625046375
298.24895277134078242
298.24498194539194174
298.2477746317217111
298.25878906239387334
298.27815315463834622
298.30467239109458433
298.33585297951236726
298.36836489145707674
298.39822332176021291
298.42173292205001189
298.43663572024058794
298.44302834131116242
298.443180259498547
298.44083355801723201
298.43950934126218044
298.44104078160739846
298.58104195402751202
298.5790872842970316
298.5915554847492217
298.62235687579658361
298.66943041073108134
298.72518302837642068
298.77937708410718187
298.82321214705990542
298.85228247807543767
298.86660277140441622
298.86904393081272246
298.86312127021858487
298.85176483102378597
298.83780047672667024
298.82454178055218108
298.81573375489233513
298.81485507476156727
298.82295546953889698
298.83894530552265678
298.86023550070513011
298.88334717587974865
298.90549414148426877
298.92462707143062062
298.94004209514383774
298.95233290035167784
298.96347014432052447
298.97676481116917557
298.99570401546458243
299.0225113322048287
299.05710949628820572
299.09674573453031599
299.13712706796320617
299.17419751327889799
299.20566891380860852
299.23117542296222382
299.25164676592061141
299.26817277892627089
299.28151458842319244
299.29215413650729261
299.30019764351544609
299.30669556895719552
299.3137976753216094
299.32469695303376511
299.34206832134884735
299.36731722298281966
299.39881236541873477
299.4325724780831024
299.46259160185712744
299.48349219610122418
299.49136701846742881
299.48648315611069393
299.47321759158774057
299.4591074484277442
299.45309914837798715
299.46265063880105117
299.49153094106156914
299.53872082267184851
299.59885739987112174
299.66359601779385002
299.72428639090327351
299.77481058775072142
299.81244892315805828
299.83752655576040524
299.85244865949005089
299.86000826576275813
299.86297846739682882
299.86396856196870431
299.86577336420555184
299.87115493678737721
299.88207473318800567
299.89926320617627198
299.92119660332070907
299.94421869052848706
299.96352268444644551
299.97491497757323486
299.97597702703046707
299.96713833326481335
299.95091272233810287
299.93140709666840849
299.91298602709764509
299.89956434334266078
299.89430857980568135
299.89898626499604006
299.91379512672500596
299.93741201510488281
299.96673948810052934
299.9973310932131767
300.02394992992873313
300.04158955509603857
300.0465593736489609
300.03751849439964872
300.0155817547806123
299.98411939859215636
299.94779039469432291
299.91186072900609361
299.88155442139583329
299.86105588019211154
299.85358275896783198
299.85983209643217151
299.879073252359035
299.90756654689556626
299.94005930419865535
299.97037122109571783
299.99263160772369474
300.00313434710392357
300.00075267773064525
299.98705037573046184
299.96564914438522464
299.94115700271601099
299.9180945860259726
299.90002360046150898
299.88948292416807817
299.88731424695544092
299.89330478259785195
299.90625065336138277
299.92376184667250527
299.94290955666917853
299.96100084513318507
299.97601433998568154
299.98721772334971547
299.99504388496256979
300.00085184895954171
300.0063940342990918
300.01339196904859818
300.02265720707976016
300.03406590276409815
300.04648967793315251
300.05811957282219282
300.06705257398226649
300.07188874037910864
300.0718535575034025
300.06709378683729028
300.05833567608431167
300.04646971686781853
300.03218834306164808
300.01581642425611562
299.99806848184493901
299.98053310821666173
299.96617069756916862
299.95904062912939025
299.96331909531824067
299.98177969833972156
300.01469350162938099
300.05905823622134676
300.10898951174954163
300.15717216490997998
300.1966144981204252
300.22270351225529339
300.23412438277046022
300.2329534081797533
300.22381864380110983
300.21258268378471712
300.2048136653399979
300.20452745962194285
300.21396237872647816
300.23337764660340099
300.26156584000551675
300.29607094676237011
300.3337247602743787
300.37062418822540621
300.40252612066376514
300.42529382012264705
300.43563290566481783
300.4318588365041478
300.41448018674145715
300.3866744220395617
300.35390014681422599
300.32255898644729086
300.29895359929145116
300.28788495738865549
300.29144654867502595
300.3089254525568208
300.33747431239862635
300.37259172060737455
300.40934826135162439
300.44364588255791659
300.47291159753541478
300.49643048517617672
300.51518511961091917
300.53149671227907902
300.54837772485802816
300.56878751351257506
300.59501510009357617
300.6279944384079954
300.667124175399465
300.71008190427295403
300.7532365824279168
300.79222987247828769
300.82270971141986138
300.84117483716761399
300.84566565275105177
300.8362064408185006
300.8149748647585966
300.78549219201357801
300.75212120654083492
300.71934116850729879
300.69097386751212753
300.66958300200241183
300.6562985215555841
300.65099898674037604
300.6526787662857032
300.65984742091740145
300.67087415874215139
300.68439443103250142
300.69949608044942124
300.71588647474493428
300.7336846941147428
300.75341834646712869
300.77590341599983503
300.80212160091559781
300.83326527704934961
300.87043034559724219
300.91413248123268431
300.96376142900373907
301.01742272713960347
301.07191814216275816
301.12318148605407941
301.16696231499099667
301.19961338290880803
301.21868090402313101
301.22347828696842953
301.21514346507927939
301.19640311683440359
301.17105174854077632
301.14315387605063279
301.11640294860984568
301.09356261979695546
301.07616951909324143
301.06481535395170113
301.05912980758262165
301.05793863022103096
301.06012287449266296
301.06451836676893663
301.0699500627559928
301.0757296591163481
301.0813462966921179
301.08688706988698414
301.09262535101339608
301.09898946325506586
301.10633083860818715
301.11540385431300137
301.12681809412634948
301.14096737065096931
301.15812228474089807
301.17786929288246256
301.19953173418542747
301.22211681728828125
301.24449440079416718
301.2656506437243138
301.2848361341900727
301.30157859563280454
301.31592952484163561
301.32797115847699843
301.33765298652394904
300.03568817709702898
300.01846738971539708
299.94903550133631143
299.9321403402855708
299.99899997736173418
299.95249066528373305
299.81455832149953267
299.75483253560963703
299.74862239984776124
299.73953932201158068
299.76765486033889374
299.78388272269762638
299.77677148632380977
299.79316949801750525
299.79949324130905097
299.77330443571423757
299.74535061568423089
299.7041989736665073
299.69941078192596251
299.80766956274936774
299.96984701295758668
300.03588590033047012
299.93528224403951299
299.73478395309558664
299.54288769263717995
299.4288703694616629
299.41522796205674695
299.48032107954480807
299.56054225410019853
299.59824456451246988
299.5802777414920115
299.52619970920636661
299.46915514589460372
299.4391034994591223
299.46719404932230191
299.55904937943023469
299.67135706657421679
299.7446328881042632
299.7562434360168595
299.71156417122381299
299.61861038495470666
299.5001974279824708
299.40474540445973162
299.36632179022700484
299.38464162624273968
299.42050679459845242
299.43411531225456201
299.41150041346196531
299.36373041862333366
299.3184040085428137
299.29935935965067983
299.32355118793151405
299.39473379175154832
299.49578699129608594
299.59379851028319308
299.66509630309616341
299.70498810221590702
299.71106932039441517
299.67839218746121333
299.61550409799855288
299.54274511669405001
299.47221824824146097
299.41128903005647999
299.37056680114250184
299.35588494102563573
299.35791951878252348
299.3582641121606116
299.34619181436170265
299.32629814551046366
299.30379074600176637
299.27656638635392028
299.25073577683389203
299.24730628102736318
299.28434654834285311
299.35404130014427437
299.42488408083443119
299.47033023846165634
299.48225389870225399
299.4666072006979789
299.42715423300143129
299.37067113860172185
299.3114449907976109
299.26885862807887406
299.25660096895262541
299.27244086023358705
299.30749619029643327
299.3495606865691343
299.38915055290152623
299.41144215201808265
299.41105164838972996
299.40104230974998245
299.40282514579928375
299.42848727535755415
299.47154313968400174
299.51250571283890167
299.53270112077302656
299.52280238849158422
299.4826472128874002
299.42083559015469518
299.35315387596523351
299.29641561245620096
299.26064678512312867
299.25351546645026701
299.27435851173453329
299.3134948350153195
299.3504045886552376
299.36171600332960452
299.33567478316047072
299.28005921702640535
299.21523278821734948
299.15853997997498936
299.11716458180876543
299.09265377946701392
299.08322680067249166
299.08284800360235067
299.08145850630739915
299.07089793367669017
299.05137795389214261
299.03105797122816512
299.01744295664724405
299.01296960999843577
299.01484068132475613
299.01698092345930036
299.01373040989551555
298.99829573501449431
298.96520689706670737
298.9167423543390214
298.86279175409185882
298.81623559056259865
298.787191730373479
298.77526725399286534
298.7717728344134116
298.7643499172716588
298.74583645311946611
298.71897923573436628
298.69346682229024736
298.67874195205519072
298.67603759096090243
298.67597116671311142
298.66381767730615593
298.63098066088946325
298.58191935689410457
298.52894308367928033
298.48373467654181468
298.44944059612510046
298.42329192956299266
298.40028567357461498
298.37756884652628742
298.35363038861981977
298.32571172502230183
298.2927600904727683
298.25809509129686603
298.22949873977398738
298.21456856327841933
298.21692785007365956
298.23537203420033848
298.26412867102385462
298.29612876746040229
298.32534815903704839
298.34676517125473083
298.35804141465905559
298.35968183409630683
298.35344397084884349
298.34145765417088114
298.326717403460691
298.31184194315426339
298.29877470612848356
298.2870346957511174
298.2765579745132527
298.26793458861368435
298.26212550207856111
298.260651421483999
298.26485861256844601
298.27401513754682583
298.28563928800497251
298.29756531290371413
298.30865710098368027
298.32029376984991131
298.33559597891962767
298.35715277023285807
298.38426559246522629
298.41228057487808201
298.43521508774875883
298.44928172070206074
298.4543835633761546
298.45344901927848014
298.45042685597570653
298.44762560789291683
298.44473396456510272
298.63256889995199117
298.61998572311267708
298.60862588532268092
298.60802745830028471
298.62455402451627151
298.65872363326803907
298.70462923752552342
298.75263867530168227
298.79338619730629034
298.82148032870679799
298.83614320023190203
298.83997823802445737
298.83648973537145821
298.82906191259064599
298.82043138646832858
298.81308329364412657
298.80959183152111791
298.81198300060788142
298.82131604974273387
298.83741498267204406
298.85911140680474318
298.88447189090607026
298.91087510357198198
298.93566195427303001
298.956518862058374
298.97297511711963125
298.98665641991698294
299.00089039104523181
299.01965826712932994
299.0453956356025742
299.07767485879480773
299.1136303634858109
299.14959072677589802
299.1825112287380648
299.21110704954520543
299.23547351340636169
299.25612356365729738
299.27326333001656167
299.28626093997735325
299.29442143994327807
299.2981784679852808
299.29936522528294063
299.30223813230213636
299.3114709119025747
299.33123312736807975
299.36256564576177652
299.40321131887174033
299.44710457075046861
299.48694242565619561
299.51560361879955963
299.52858309246420276
299.52568772261525964
299.51099178544228607
299.49262728782338172
299.48033918968121725
299.48236552898703167
299.50336365507689607
299.5431246489096111
299.59656963180879075
299.65546718291432171
299.7111794211131155
299.75728027031635747
299.79087654451217304
299.81230000682950276
299.8241561709315306
299.82999069649588364
299.83328430373188667
299.83706936529853238
299.84384231818216904
299.85529718030574031
299.87247160025350468
299.89486727402731958
299.92088092983101433
299.94713016267098737
299.96990357781419334
299.98544956385524074
299.99105207697567721
299.98599438761721103
299.97103215700798273
299.94891540633506111
299.92380645925635463
299.90090789823443629
299.88507087047429422
299.88018374697026047
299.88812490496604823
299.90815059888029737
299.93697251029789186
299.96927619373792595
299.99886174834358599
300.01995902035889685
300.02844838786791115
300.0224854525577598
300.00284363668941978
299.97265050484026006
299.93650105919005
299.89984629965226759
299.86801852210436437
299.84567292536593186
299.83657930530387148
299.84215222968049375
299.8618182998753241
299.89223697153744297
299.9281378346472593
299.96330266846342738
299.99155815035624073
300.00866964048225327
300.01258015442181204
300.00445960088666197
299.98698166007881127
299.9645171441088678
299.94143615291187643
299.92147612843200477
299.90770792573721337
299.90194630651387797
299.90468092605806305
299.91537489649965664
299.93218495934809198
299.95206401348951886
299.97148947479405479
299.98743746918250963
299.99809068795133271
300.00322444823291335
300.00418864035918887
300.00346276506292043
300.00378463084302894
300.00729832248970297
300.0149389518848011
300.02631418953660614
300.03987524382756646
300.05343945770039227
300.06509011961844635
300.07341655172422179
300.07776985088793253
300.07790187619337985
300.07376407752400382
300.06526751717791512
300.05233067823058946
300.03561314403373217
300.01729005531876737
300.00120812007355653
299.99249828597595524
299.99616739287040446
300.01517811188216456
300.04944530262275748
300.09504653789315398
300.14520587769146687
300.19181427405624163
300.22773070924989725
300.24856609884585623
300.25366196611815894
300.2460524393304695
300.23120764045654596
300.21555057893067442
300.20477340435644464
300.20289495554948189
300.21178765595658433
300.23132424057172329
300.26000090118691332
300.29544461743205375
300.3347585415937715
300.37425522481089502
300.40972013168880039
300.43651282552730208
300.45048992896863638
300.44909162963102744
300.43230205146869594
300.40321366493458299
300.367545076108172
300.3326696480796727
300.30629913891749538
300.29404088140512386
300.29853690379223963
300.319244711750855
300.35236490610708415
300.39238617371245255
300.43321432237064528
300.46970366885784642
300.498770498780857
300.5195632715047509
300.53340290919851441
300.54337167324553093
300.55355707120889974
300.56797797076870893
300.58969980717057524
300.62014289346041096
300.65882723753094297
300.70319113209512807
300.74922647586112134
300.7920169847084253
300.82676004205171694
300.84965412608039514
300.85858506760138198
300.85342647665487448
300.83611493834519024
300.81012065257539234
300.77971459875652727
300.74922332445157735
300.72241503766139203
300.70184941052218619
300.68902532762746205
300.68403938629001004
300.68617886770454106
300.69412390263926227
300.70636708601904274
300.72134412867382025
300.73786471986915103
300.75507227461361026
300.77262898851915907
300.79084602534612713
300.81061755647567679
300.83324996359203851
300.86015270076217121
300.89250846940080919
300.93115518085801341
300.97587537037952643
301.02511090638711266
301.07613432025840439
301.12508997185574344
301.1678420941422587
301.20053897307269608
301.2205871190731159
301.22679728743486294
301.21990809753327767
301.20229359864725893
301.17737266284336783
301.14925905773475279
301.12188714699607317
301.09852159808980332
301.08126340225112472
301.07095901813835326
301.0673034243817483
301.06909876426436767
301.07458556001387251
301.08209512513616346
301.09022052785132928
301.09810870356437817
301.10519502801128056
301.11139905433981312
301.11712458577670759
301.12298996410737573
301.12963820561111561
301.13752515915012964
301.14702185954138258
301.15862308408236458
301.17222712103250615
301.18766395431532601
301.20446390236361367
301.22195955677608481
301.2396069093197184
301.256917145159548
301.27366670547831973
301.2897256337505496
301.30506997869031238
301.31974746529760978
301.33353584528333613
299.84937862634205885
299.79318923780198247
299.71072335279501431
299.72553246639211011
299.95662031262338587
300.11241433750404894
300.01143371776510094
299.8668998069692293
299.76705122536503723
299.69164790912958551
299.71037629575096162
299.81210295073697125
299.90236798013489761
299.92021939043593193
299.83068126583344792
299.7091386357024021
299.64233555843628665
299.62630196083546252
299.66258175105781447
299.79312695249836906
299.96415631145117686
300.04271183417398561
299.97766688321263473
299.79904475779409267
299.591343288014059
299.45564693475807871
299.44318815178564819
299.52615163023637024
299.61604509140852315
299.63460851824402198
299.57342312531568496
299.48971937802127741
299.4484815382021452
299.4665595325175218
299.53535384569755706
299.64330950174394275
299.75756859608100058
299.8304968927596974
299.83651893861718918
299.77668814074343118
299.65774542085074472
299.51477870291574845
299.41183707556069749
299.39657212630226013
299.44728726772223126
299.50235275173128002
299.51855336453826339
299.4882409113184849
299.42869973357335311
299.36404161273196678
299.3279875329051265
299.34727431187832281
299.41943853798858299
299.51563362692121473
299.60448005115995329
299.67388137210537025
299.7218636971059027
299.73702037203520376
299.70786714935405826
299.64244931008869344
299.5596334399287457
299.47676268007319322
299.4038749094531795
299.35370751749536566
299.3409826412540724
299.35686021192077533
299.37344520690066929
299.36738590805634885
299.33647908984096375
299.28950421710288765
299.24416383731670521
299.22205159563577581
299.24223249886586018
299.30948800351825412
299.40221412006889068
299.48375420058869167
299.52712450195264182
299.52478626500095515
299.48478094254375037
299.42343261991641157
299.35912664151442186
299.30655622465974375
299.27689590185514135
299.27441747684861184
299.29712208774435567
299.33856783992473538
299.38850940670687351
299.43434778411506159
299.46131198621560543
299.46389704585675418
299.44894447450917596
299.43766798874878532
299.44756023394427302
299.47889395316678929
299.51511930017187524
299.53373667777185574
299.51934413039344918
299.47139098029259685
299.40287275761107821
299.33393909809393563
299.28118656332793535
299.25473408971186018
299.25858680624952513
299.29090273021000712
299.34033110700374891
299.38311447566167089
299.39229203857831862
299.3550154585331029
299.28361638945273171
299.20684223326179563
299.15026463044159755
299.12112522409222493
299.11148348941543418
299.1088212656018186
299.10239847481574316
299.08536241363725594
299.05672381073418364
299.02409160056549808
298.99840066160282959
298.98514505072250813
298.98365350128989348
298.98723523759406362
298.9911465665715582
298.99005648576843441
298.9789864296544124
298.95213527184540681
298.90881310703178997
298.8582681472436775
298.8140434183568459
298.78534542818573527
298.77337952707432578
298.77107203372179356
298.76768785321218047
298.75607245434173365
298.73596232363325953
298.71283692641958396
298.69350580835396158
298.67965390611425391
298.66466336502566037
298.63878953622929657
298.5982014201422885
298.54921549770085676
298.50334698910080533
298.46921462572078099
298.44751662938750769
298.43194174363094362
298.41617697733335035
298.39752394274029257
298.37437116590223241
298.346558669399883
298.31507088302396369
298.28269708081148792
298.25537444332417181
298.2390528703431869
298.2367903610504527
298.24833175527589901
298.27083060270604165
298.29931945510213609
298.32676453880446843
298.34518146239946645
298.34969778895555237
298.34117133326822113
298.32472009367774035
298.30678159378356895
298.29170755130331827
298.28081792725868127
298.272073992966682
298.26351834057226142
298.25415476652858615
298.24666379087034329
298.2457073920600692
298.25478971640961845
298.2740688272828038
298.29917826495619693
298.32273564468698623
298.33750373448339133
298.34187627081007577
298.33956361564065674
298.33934771532938157
298.34864109441718938
298.369360133573025
298.39715609096577964
298.42421129885019582
298.44415486478510502
298.45504158636259717
298.45851704045310271
298.45756846804721363
298.45325739075747151
298.44478831264598284
298.6761455182685836
298.6601779129984493
298.64038947832540316
298.62743283131561611
298.6307853330667399
298.6540615867616566
298.69326255225610112
298.7392410809226817
298.78186135691311165
298.81379757616889492
298.83223999143575611
298.83855830815997479
298.83652882045657861
298.83064800963182961
298.82454956423629255
298.82075554282192797
298.82068128381428096
298.82483622216921049
298.83342602041631153
298.84701798332224598
298.86579780634855297
298.8897083973666895
298.91689163442919153
298.94430040249767444
298.9684924085674993
298.98737141057694089
299.00170579632163026
299.01465373379977564
299.02994532564827068
299.0500684816431658
299.07558370256458602
299.10508402750895129
299.13628182572540481
299.16732294891369293
299.19751168138185449
299.22667008677706235
299.2542719934450588
299.27873390600558423
299.2977241348137909
299.30935220115742368
299.31368996374692415
299.31355104637185605
299.31411549644485603
299.32133237894669264
299.33991351371628298
299.37059771517812123
299.41037011046813632
299.45212808007738658
299.48794301304144483
299.51078110861396908
299.51743240308201166
299.50918806094716729
299.49188401464834897
299.47458985607079285
299.46709806875304594
299.47709550716268723
299.50776465207593446
299.55676778233100777
299.61694170409327853
299.67866889693851817
299.73286024456564292
299.77319428434793736
299.7975644865039726
299.80792169967139671
299.80886987629844498
299.80610299399074847
299.80456324102431154
299.80796414944916251
299.8185996697489486
299.83669238643977906
299.86169334609189718
299.89168897675773451
299.92362182291304862
299.9536575308685542
299.97816383790041073
299.99352916952619807
299.99744043976079411
299.98877242074826199
299.96875890181735258
299.94116767654651312
299.91168627267518332
299.88691221557934341
299.87275650046194642
299.87314232081939736
299.888830617363908
299.91675271428579208
299.9509225059957771
299.98391249130526148
300.00867488236207237
300.02014475878610256
300.01594102142104248
299.99659130245419192
299.96517457139913176
299.92653625656004124
299.88638352441824964
299.85042423069381812
299.82336306867699705
299.80889382361573325
299.8092598970854965
299.82507585516322024
299.8541552269595627
299.89239414553406959
299.93389889825982664
299.97213442827114704
300.00133395799826985
300.01793058369753453
300.02085932983646899
300.01203200956354067
299.99515955719829208
299.97492517565461867
299.95535814359470805
299.93948512877750545
299.92940338690272029
299.9260112189059555
299.92914231251540969
299.93780242953715742
299.95034956320262154
299.96444862625696715
299.97755343562261032
299.98752901960330064
299.9933833640864691
299.99552186215572647
299.99566650598291062
299.99632372455334917
300.00000507743135358
300.0083224905703787
300.02144818030683382
300.03823178955889261
300.05627946642675852
300.07297496934984338
300.08612480306061343
300.09413900421679955
300.09660043214717007
300.09382112478351701
300.08675098071734055
300.07641018796169874
300.06399379546286355
300.05120074679740583
300.04033702114077187
300.03459096395255301
300.03729402937528903
300.05152427582066821
300.07805181065606348
300.11514209618650284
300.15815885828521914
300.2005221224863476
300.23545179679780404
300.25780812714725698
300.26547761944414106
300.25993372907873891
300.24557312558368949
300.22836752676880678
300.21418603695656202
300.20752351981229822
300.21064370373665042
300.2239489670491821
300.2460794677500644
300.27490304516220476
300.30782204896155463
300.34204449373447687
300.37439488059675341
300.40151438242457971
300.41979331834050981
300.42621491560822733
300.41948755446998121
300.40087963474439903
300.37424077085449881
300.34540902182953914
300.32126535911629617
300.30791017976559942
300.30901770703934517
300.32532632306180176
300.35438537244090185
300.39140693263408366
300.43062439055859159
300.46665736595781482
300.49578337033210573
300.51668407590801735
300.53039091255590165
300.5397267623083053
300.54850311789431316
300.56053260849768094
300.57894895471525842
300.60542246843158409
300.63991654690289579
300.68068279790975339
300.72462866717927454
300.76773994113182198
300.80578369924808158
300.83485138216246924
300.85215014939541334
300.85642567175659678
300.84819816507877022
300.82971737838516901
300.80463412986176763
300.77729648125631456
300.75186162962808112
300.73151034356533273
300.71816032420014153
300.71231755819644604
300.71334373955045294
300.71975493108112687
300.72992008539944209
300.74223593783602837
300.75540331190774168
300.76871830917565376
300.78207144038856313
300.79591090481739002
300.81099405362982679
300.82849120680310762
300.84987273917693074
300.87651492083654148
300.90922979209454979
300.94796750084270798
300.99191038936089626
301.03939919518097668
301.08775120991538188
301.13358915471411592
301.17331804162984099
301.20361431617510561
301.22215024830768471
301.2279234095361744
301.2214111101296794
301.20467432033859723
301.18080668478290818
301.15367991721689123
301.12717254128546074
301.1044995756709568
301.08813466910277157
301.07923638812377476
301.07764560347385441
301.08222591378228117
301.09102860073937791
301.10200433607565174
301.11338557154959972
301.12380826836738379
301.13259284428215778
301.13966267964872259
301.14524176499514851
301.14981474837492215
301.15429581025074413
301.15934906663227366
301.16550478473260455
301.17322983395843039
301.18287300803950757
301.19447603538935709
301.2077483479609441
301.22228200285479716
301.2375028664536103
301.25292487625654303
301.26817127379882777
301.28314973066409266
301.29773020616426038
301.3118783359713575
301.32560165265545038
301.33857007459653232
300.07250261691962123
299.93085890431166263
299.94252241496189981
300.00989926163026666
300.11892150391150835
300.21627826238267289
300.13846814112389438
299.98539001415434768
299.83251642256129799
299.67291875424763248