/*--------------------------------*- C++ -*----------------------------------*\
  =========                 |
  \\      /  F ield         | OpenFOAM: The Open Source CFD Toolbox
   \\    /   O peration     | Website:  https://openfoam.org
    \\  /    A nd           | Version:  12
     \\/     M anipulation  |
\*---------------------------------------------------------------------------*/
FoamFile
{
    format      ascii;
    class       volScalarField;
    location    "0.0089";
    object      nut;
}
// * * * * * * * * * * * * * * * * * * * * * * * * * * * * * * * * * * * * * //

dimensions      [0 2 -1 0 0 0 0];

internalField   nonuniform List<scalar> 
75962
(
4.9065604121107787038e-07
5.6069048408730927973e-07
6.5485576691938260641e-07
7.9165237395044720337e-07
9.1624673908342019034e-07
9.8926302521794731497e-07
1.0333366956675718012e-06
1.1025175327514678274e-06
1.2133467132938334366e-06
1.3291798142722596379e-06
1.4069033020257999276e-06
1.4465227766907867848e-06
1.4959143878788969883e-06
1.6033522565291867969e-06
1.7133150148027297467e-06
1.7713146047331327666e-06
1.8095299570124017609e-06
1.8832394606728505949e-06
1.9867613814259624575e-06
2.0713529382351688967e-06
2.1226891043793884822e-06
2.177338655034197293e-06
2.2763503886660647317e-06
2.4099058675352784483e-06
2.5270786327058599859e-06
2.595299510971081427e-06
2.6382080048897511711e-06
2.7065523776000487205e-06
2.813269130339649477e-06
2.9217071472072504354e-06
2.9934420549273878749e-06
3.0258139242233232087e-06
3.0462516792712370025e-06
3.0866400171426695898e-06
3.1837049951552820184e-06
3.3016383651892339512e-06
3.4021465407752848659e-06
3.4760621803356373141e-06
3.5287342938278090868e-06
3.5797984014842318318e-06
3.6502217359233006132e-06
3.743296196303119191e-06
3.8432174148277881094e-06
3.9300050651397736872e-06
3.99309581990896473e-06
4.0341921541886473397e-06
4.0655247958390366663e-06
4.1045573552737026524e-06
4.1622065440595927473e-06
4.2324858894819266812e-06
4.3011922273690339068e-06
4.3619199671481636562e-06
4.4206432519406444395e-06
4.4853595225939223409e-06
4.5550134747938316265e-06
4.6170711792123909429e-06
4.6591997769494445633e-06
4.6833360236542605638e-06
4.7099912954604743049e-06
4.7662080453660229045e-06
4.8656017268886114262e-06
4.994685572741538783e-06
5.1227041881286995001e-06
5.2231940382344248361e-06
5.2871082244635590394e-06
5.3221527233697639474e-06
5.3443188022949428373e-06
5.3699661669522883559e-06
5.4119504603553475724e-06
5.4748516954256117023e-06
5.5528793319209106369e-06
5.6332555817725504189e-06
5.7018424604423829203e-06
5.7492807133590115011e-06
5.774692717376722673e-06
5.7862044922894120605e-06
5.7985666646168424702e-06
5.8280044902426350462e-06
5.90195348601985406e-06
6.0050687761411018504e-06
6.1077440458331911445e-06
6.1941047431625029175e-06
6.2542949811661047413e-06
6.2899686176751918801e-06
6.312020798091633864e-06
6.3329925227752841238e-06
6.3622211531653956936e-06
6.4045417309040135055e-06
6.4661823158525788254e-06
6.5509936537572620617e-06
6.6613576723270140692e-06
6.7911865233277854577e-06
6.9261686729983567938e-06
7.0445160181406205318e-06
7.1250944628529742523e-06
7.1593067047986868188e-06
7.1610037737182370894e-06
7.1514429376707332555e-06
7.1406172105389749418e-06
7.1417338168844968032e-06
7.1850192380374358267e-06
7.3400633391930942154e-06
7.4879003528413124328e-06
7.5774141354141497705e-06
7.6291880453018481195e-06
7.6600618755563376145e-06
7.6803913218360811768e-06
7.6962537883453708897e-06
7.7118400222687831698e-06
7.7311780697314363997e-06
7.7573458546982083434e-06
7.7904671629875695698e-06
7.8256583908939199599e-06
7.8545401461065004984e-06
7.8692793435549627645e-06
7.870159978765387367e-06
7.8637719140399600171e-06
7.8544912631586620826e-06
7.8493436188453770012e-06
7.8578044867252236138e-06
7.9216878799919396113e-06
8.0797281213170966919e-06
8.2014731169091565136e-06
8.2757389545006403907e-06
8.3161540827208760469e-06
8.3406440037032786273e-06
8.3616285882119654007e-06
8.3878180929377327692e-06
8.4235553607963083536e-06
8.4704503045467807119e-06
8.5283074286921601659e-06
8.5947961587763041085e-06
8.6617039085360640702e-06
8.7184626707801486271e-06
8.7541408218445260713e-06
8.7659045456616463144e-06
8.7622063558742150968e-06
8.7512731576832179423e-06
8.7296318007240382338e-06
8.7174916211554753993e-06
8.714206196508516615e-06
8.7323810511740843359e-06
8.8186816552957779754e-06
8.9331301509334882919e-06
9.0163308191497635354e-06
9.0720344591235434434e-06
9.1042549934108481631e-06
9.1199057459680346805e-06
9.132347206682155585e-06
9.160942372419125245e-06
9.22428676616401225e-06
9.3123204879743751026e-06
9.4114067496169271612e-06
9.503151013789095034e-06
9.5695569574780631341e-06
9.6014794572185241394e-06
9.6046554079760024426e-06
9.5951398351906785721e-06
9.5671902882311917013e-06
9.5090161138412640567e-06
9.4707218646865552736e-06
9.4527044647274160468e-06
9.4451617182907466518e-06
9.4422494537500778738e-06
9.4529532957805447195e-06
9.4946854674655079486e-06
9.5569607756845981281e-06
9.6337116859732702004e-06
9.7225481076706372772e-06
9.8147058684730280147e-06
9.9031763699665285888e-06
9.985183523619038117e-06
1.0059691103624669039e-05
1.0124859086883789371e-05
1.0175550035004681285e-05
1.0206035833421098254e-05
1.0215517352077174986e-05
1.0211621997440707696e-05
1.0200951100671856687e-05
1.0170060912220904418e-05
1.0099663434771430354e-05
1.0044629788874631391e-05
1.0016814239559395009e-05
1.0007132084318201689e-05
1.0010387040527161446e-05
1.0063398690064105341e-05
1.0251079441123862743e-05
1.0453226405580374371e-05
1.1304708697551065286e-05
1.1430083319748653669e-05
1.1621854489818882691e-05
1.1731328192425516751e-05
1.177431046380966738e-05
1.1780496399166791243e-05
1.1773530959743308874e-05
1.1764168706577143411e-05
1.1754762677305758266e-05
1.1744672139695561664e-05
1.1729526465372116676e-05
1.16916543428784299e-05
1.1572762552651359098e-05
1.1380846485854551541e-05
1.122933553062000369e-05
1.1127234318007842817e-05
1.1069747283927239948e-05
1.1043379669480666479e-05
1.1032671898842985581e-05
1.1027372679140902417e-05
1.1034035074463947589e-05
1.1058944544431462405e-05
1.1074952191093616363e-05
1.1081239024439715969e-05
1.1079829607865655526e-05
1.1073877043022480065e-05
1.1065737233519469694e-05
1.1055334103865467341e-05
1.103676186096982993e-05
1.0993675407684683546e-05
1.0938156227895831654e-05
1.0890453615996892707e-05
1.0851475987394329013e-05
1.0821114842290122216e-05
1.0798980678382063389e-05
1.0783512359783848324e-05
1.0772800732919602618e-05
1.0764130128884769972e-05
1.0756889299975578369e-05
1.0753303443351034933e-05
1.0762744239873298124e-05
1.0782783992319656548e-05
1.0798462032317597916e-05
1.0809137353350272537e-05
1.0814689168877051446e-05
1.0815501361540209028e-05
1.081251274873748226e-05
1.08066107842492845e-05
1.079928696658907291e-05
1.0791573925218617835e-05
1.0783232279202067583e-05
1.0775053525279087451e-05
1.0767459918031866553e-05
1.0760496206488089752e-05
1.0756103128957593342e-05
1.0759814469295085694e-05
1.0773741252407631223e-05
1.0789140425063085493e-05
1.0804865445245219848e-05
1.0820259977087717416e-05
1.0834269209327417388e-05
1.0845513818722990593e-05
1.0853359894284349513e-05
1.0857279170192698131e-05
1.0857418575793567964e-05
1.0854193805475358765e-05
1.0848570127508092226e-05
1.0841930145769891847e-05
1.0834643507185460354e-05
1.0826565894461345787e-05
1.0817500941362059261e-05
1.0809115695372901444e-05
1.0801289010976789054e-05
1.079422224343278072e-05
1.0790023810583875696e-05
1.0796369170685160988e-05
1.0813606948901099386e-05
1.0829006521696032635e-05
1.0842452259354429597e-05
1.0853814052525838794e-05
1.0862672811906990954e-05
1.0869174598207728498e-05
1.0873279473854861345e-05
1.0875017417126858464e-05
1.0875234247135880927e-05
1.0874114362958689679e-05
1.0872197711058025695e-05
1.0869701187287022674e-05
1.0867082870404065644e-05
1.0864253369802328285e-05
1.0861002135838638513e-05
1.0857427460292107455e-05
1.0853483881705409684e-05
1.0848806260714100071e-05
1.084338514047122487e-05
1.0837612991273382017e-05
1.0831627984280990957e-05
1.0825429894310673008e-05
1.0819384162189014611e-05
1.0813918421871057064e-05
1.0809262575766769246e-05
1.0805510700101541026e-05
1.0802949119325045007e-05
1.0801574905506740822e-05
1.0801723937649116255e-05
1.0803550020272726566e-05
1.0807127716071388359e-05
1.0812485791811927714e-05
1.0819483096453842802e-05
1.0827580338966486545e-05
1.0835895598969193102e-05
1.0843459269550813644e-05
1.0849656779380354731e-05
1.0853185439501166447e-05
1.0853744634676416655e-05
1.085156317775751442e-05
1.08470392377729866e-05
1.0840926356145012187e-05
1.0834064408324543021e-05
1.0826846667809075098e-05
1.0819261507820727628e-05
1.0811165024930403968e-05
1.0801230016332873424e-05
1.0788938672126423737e-05
1.0776938550371437049e-05
1.0764296337666128897e-05
1.0751936165056273618e-05
1.0738891237229315621e-05
1.0726070221262065186e-05
1.0712557891373089604e-05
1.0699221378815836119e-05
1.0685284361353439235e-05
1.0671713949774274855e-05
1.0657731306660258263e-05
1.0644422137306920102e-05
1.0630873336934818581e-05
1.0618072444290709778e-05
1.0605087129329841101e-05
1.0592783178585536303e-05
1.0580227757229881925e-05
1.0568331163149272367e-05
1.0556055566579121082e-05
1.0544381278853679889e-05
1.0532204792871996865e-05
1.0520524347425677065e-05
1.0508332212921638128e-05
1.0496595819955834949e-05
1.0484399674109222598e-05
1.0472721370509332695e-05
1.0460646985909066177e-05
1.044914875107363423e-05
1.043735392652646333e-05
1.04261200961325658e-05
1.041459352282426237e-05
1.040353282582393898e-05
1.0392080369180499585e-05
1.0380979567337923267e-05
1.0369361677422364495e-05
1.0358147532727430233e-05
1.0346398123510076276e-05
1.0335123832191493398e-05
1.0323392403230649393e-05
1.0312099056355542804e-05
1.0300455723100066248e-05
1.0289235777001476556e-05
1.0277614108272922915e-05
1.0266466118649027138e-05
1.0254749376840076913e-05
1.0243461034591298613e-05
1.023157730586849057e-05
1.0220052835107346073e-05
1.0207905303807094066e-05
1.0196130872221168621e-05
1.0183560386912587665e-05
1.0171450635440741433e-05
1.0158443156207259928e-05
1.0146087978757995757e-05
1.0132939707758666385e-05
1.0120585461141819381e-05
1.0107590115087337822e-05
1.0095403685774001414e-05
1.008254106879081953e-05
1.0070497004112939255e-05
1.005774759175466974e-05
1.0045824613644474175e-05
1.0033176327546207632e-05
1.0021339583878299684e-05
1.0008690375137934989e-05
9.9968017495886997968e-06
9.984113156290015312e-06
9.9721909495407560939e-06
9.959516660106388161e-06
9.947756474140086698e-06
9.935223564303639825e-06
9.9235704757068107687e-06
9.911161611473676757e-06
9.8994730785582300809e-06
9.8869696508401899514e-06
9.8752151154834785736e-06
9.8625560560646727314e-06
9.850739099818267745e-06
9.837970688588328812e-06
9.8261162668745362782e-06
9.8133495023930884267e-06
9.8015234551461700893e-06
9.7887577804387909528e-06
9.7770130090564105085e-06
9.7642452061339162476e-06
9.7524944999167893545e-06
9.7398035379314015872e-06
9.7282242229217025784e-06
9.715658565548953096e-06
9.7043796656874680638e-06
9.6921210355758164834e-06
9.6810332015244910449e-06
9.6689192992583142364e-06
9.6579878632839663376e-06
9.6457456571320089801e-06
9.6346824330254283167e-06
9.6222998233151894995e-06
9.6109944501132050593e-06
9.5984552351409369812e-06
9.5871706639889341225e-06
9.5746810883597730098e-06
9.5635187243808706406e-06
9.5510814686491593041e-06
9.5401398669140289368e-06
9.5277794846719963175e-06
9.5168985401620768863e-06
9.5045845561881979181e-06
9.4937422223870926831e-06
9.481410132120317099e-06
9.4706067328777682494e-06
9.4581596343376970343e-06
9.4472903140758504977e-06
9.4347576843306970044e-06
9.4238249706643567778e-06
9.4112709023296471265e-06
9.4004660556920803776e-06
9.3880236298369335631e-06
9.3775460931978734817e-06
9.3653660614654782378e-06
9.3552085903222145617e-06
9.3433453137431184376e-06
9.3333972050289204541e-06
9.3214913477831959728e-06
9.3116388884207453616e-06
9.2996851703611268565e-06
9.2897507243039822902e-06
9.2777458505428712568e-06
9.2678628039759459464e-06
9.2559068271277343293e-06
9.2460835911148658834e-06
9.2341636446726283079e-06
5.0396236331968030914e-07
5.7436518997465708796e-07
6.8962126181975221177e-07
8.3641415883789097885e-07
9.2647302685176587838e-07
9.7259218752686989346e-07
1.0479775551608875186e-06
1.1697759471233238663e-06
1.2737290904741625245e-06
1.3296613327327574798e-06
1.3745059479607606789e-06
1.4634065339721510653e-06
1.614416478394155991e-06
1.7490103518205842032e-06
1.8257299017604980387e-06
1.8596173222796133035e-06
1.8985249235922022384e-06
1.9871676947050352043e-06
2.1126156792037670333e-06
2.2197389583298966502e-06
2.2871867963837887815e-06
2.3199077721994519505e-06
2.3469132329558441373e-06
2.4031386188788996242e-06
2.5524093982272745141e-06
2.7192206793100969564e-06
2.8163680787793527669e-06
2.8850864883408484146e-06
2.9604856257540627372e-06
3.0318980935335925363e-06
3.0902857664932989786e-06
3.1534037304363218498e-06
3.2375179256137973816e-06
3.3340887981809192493e-06
3.4194229986847994818e-06
3.4764839662896485801e-06
3.5084784573175764172e-06
3.5393532920817678186e-06
3.6026748978231048309e-06
3.7473445130274435529e-06
3.9148751002048365815e-06
4.0503387826148852172e-06
4.1459846220474695292e-06
4.217084836183652287e-06
4.279202666543329045e-06
4.3351046993576880439e-06
4.3773304718695306686e-06
4.4013255048293789624e-06
4.4145546919273140059e-06
4.4357041481637881738e-06
4.488684318899088181e-06
4.5720321725496928733e-06
4.65679473999286969e-06
4.7349484140623753425e-06
4.8020096004178676395e-06
4.8525381702608580826e-06
4.8833534339908765809e-06
4.9056222254291718292e-06
4.9465214302406598594e-06
5.0331733925161085898e-06
5.1679693953275971415e-06
5.3231818411439225504e-06
5.4606436560820163345e-06
5.556108765306881281e-06
5.6081607557870477535e-06
5.6308638532675199097e-06
5.643194900731721432e-06
5.6631129387387789227e-06
5.7026321658180008299e-06
5.7648717625214660043e-06
5.844867196332888765e-06
5.9295632932792672788e-06
6.0027151971535781919e-06
6.0533902991030906821e-06
6.0800905402897924352e-06
6.090854204877827564e-06
6.0991463131532692852e-06
6.1190223401324635925e-06
6.1757370644472890829e-06
6.275093033795035177e-06
6.3721968316159850138e-06
6.4541509790020143745e-06
6.5171839892718191068e-06
6.5648518130423364381e-06
6.6047497499878229468e-06
6.6456022413373989848e-06
6.6955784856961514867e-06
6.7607151058586825848e-06
6.8424813913571786206e-06
6.9375559863435782453e-06
7.0414751063932455881e-06
7.1485193720324919804e-06
7.2505004877386822334e-06
7.3358378596757412181e-06
7.3929761282568305539e-06
7.4188572598309286181e-06
7.4215211603141464201e-06
7.4162447288092026289e-06
7.4134016220633447148e-06
7.4336146419655670862e-06
7.5477516983327483014e-06
7.8032067270926734945e-06
7.9928359302463921921e-06
8.1011398964909666796e-06
8.1478408851567156224e-06
8.1597997915636766894e-06
8.1581413765022024818e-06
8.153421535273380332e-06
8.148580574211196069e-06
8.1448446267123566404e-06
8.1470359946857527991e-06
8.1658495072477960342e-06
8.1872955397681474609e-06
8.2013558168228710904e-06
8.2055681997212081029e-06
8.2020931218363837638e-06
8.1948282631516794727e-06
8.1863749349535617469e-06
8.1819884958667273689e-06
8.1935776572532564421e-06
8.2684446310393143058e-06
8.4563532342741418103e-06
8.6087353638229618653e-06
8.708102112140280238e-06
8.7676023612906730289e-06
8.8037841276074327496e-06
8.8293033194963962197e-06
8.8552016996985174319e-06
8.8880043926315580521e-06
8.9308735233823905889e-06
8.9838015090039172476e-06
9.0438881361316019033e-06
9.1038672636898208037e-06
9.1549348465107708108e-06
9.1873989295485751109e-06
9.1981763458622265323e-06
9.1940498713285841365e-06
9.1833740539843757743e-06
9.1608423087716073902e-06
9.1461411894748506922e-06
9.1412770579135692247e-06
9.1550153811596921911e-06
9.2391707108660694185e-06
9.3930316959949596185e-06
9.5048020698626656e-06
9.579829757622053803e-06
9.6322734344985458735e-06
9.6751635107245131343e-06
9.7149838361130386335e-06
9.7568337676683603509e-06
9.8040368474512525732e-06
9.8591017318927784494e-06
9.9192578603294103421e-06
9.9750636735514407329e-06
1.0015173577953940813e-05
1.0033136896227466177e-05
1.0032140344566217673e-05
1.002261316701903917e-05
9.9975902783300238293e-06
9.9412315729421339613e-06
9.8982242390885631113e-06
9.8757985768152839088e-06
9.8661227045630444597e-06
9.861939729019922202e-06
9.8723492341105157667e-06
9.9299329667582206347e-06
1.0024892085790120298e-05
1.011230561477772445e-05
1.019473264212839963e-05
1.0275419502792103421e-05
1.0357595439281373144e-05
1.0443687312770850154e-05
1.0534106135686334269e-05
1.0623331257369846549e-05
1.0700700122294900567e-05
1.075466910141198768e-05
1.0780508570524784256e-05
1.0783052054717492041e-05
1.0775187544819705445e-05
1.0755302965470403797e-05
1.0696497789076445909e-05
1.0628454922450937184e-05
1.0589370716546747767e-05
1.0573993477613909844e-05
1.0571158260530759632e-05
1.0601303702661756055e-05
1.0733536966061742209e-05
1.0890355227637179113e-05
1.0990770204362053004e-05
1.1894112141862986886e-05
1.1896370561788826935e-05
1.1957880104711220674e-05
1.2124973063993580837e-05
1.2248012311454080559e-05
1.2316985389907962804e-05
1.2356491402989919069e-05
1.2382773333955982546e-05
1.240192187172717613e-05
1.2410995119611341824e-05
1.240885087914015527e-05
1.2398683482910969944e-05
1.2375725114644123016e-05
1.2300747736489080393e-05
1.2108214810760931736e-05
1.192879956657532124e-05
1.1806862465529482082e-05
1.173621272276730063e-05
1.1702748951268827083e-05
1.1688999305574892843e-05
1.1681954577753375668e-05
1.1682829705139480758e-05
1.16976043234656455e-05
1.1706296790635190483e-05
1.1706600421191045328e-05
1.1701582134342465271e-05
1.1693285951530227264e-05
1.1683323004609514351e-05
1.1667668804384097284e-05
1.1632728707046730465e-05
1.1573435034978217859e-05
1.1520201048097747425e-05
1.147587413120373172e-05
1.1440718821526092992e-05
1.1414117313661117822e-05
1.1394842225454823563e-05
1.1381342438806831685e-05
1.137124024844883933e-05
1.1362602355689958763e-05
1.1355191838161291559e-05
1.1351715260397952985e-05
1.1358443185505000001e-05
1.1367455266455148225e-05
1.1374554751302627279e-05
1.1379962833618456508e-05
1.1383313699698674874e-05
1.1384023066741049012e-05
1.1381862931798730605e-05
1.1377139310492406899e-05
1.1370551397284525788e-05
1.1362924301231326431e-05
1.1355047235513486672e-05
1.1347227703451839327e-05
1.1339772945228317571e-05
1.1333623998973162315e-05
1.1331304543875149679e-05
1.1337461090581587612e-05
1.13481476802698164e-05
1.1361872895183037092e-05
1.1377225033013641211e-05
1.1393282833771701778e-05
1.140842546341316451e-05
1.1421157587549412259e-05
1.1430196940341685226e-05
1.1434769182740801884e-05
1.1434930908831840863e-05
1.1431317047482872983e-05
1.1425030639829513509e-05
1.1417649018133967049e-05
1.1409646974722028175e-05
1.1400259671666275972e-05
1.1389338210663597654e-05
1.1379400574934883412e-05
1.1370546737222982529e-05
1.1362491009138872691e-05
1.135573857420023597e-05
1.1354397044344620383e-05
1.1369406750549416134e-05
1.1393187957152865593e-05
1.1412644722803680136e-05
1.1427663606599287023e-05
1.1437971416100117683e-05
1.1443980978106765395e-05
1.1446117774843597253e-05
1.1444856659416339468e-05
1.1441437445415065244e-05
1.1436712221090377872e-05
1.143170455791045843e-05
1.1426943025164671176e-05
1.1423034435247851392e-05
1.1419965794651420153e-05
1.1417349525188715464e-05
1.1415064729421456959e-05
1.1412907853398075874e-05
1.1410236845422554424e-05
1.140681175822192801e-05
1.1402817060677622081e-05
1.1398424520110242192e-05
1.1393592097203051672e-05
1.1388579083751313291e-05
1.1383991934081429028e-05
1.1380058966882342485e-05
1.1376976140859260646e-05
1.1375083878257521638e-05
1.1374440361555200531e-05
1.1375234552317725373e-05
1.1377563344678341399e-05
1.1381434902552865784e-05
1.1386926743204421562e-05
1.1393831710997257749e-05
1.1401662043299847218e-05
1.1409654719917604307e-05
1.1416873342858669464e-05
1.1422733299157625746e-05
1.1426003685196791252e-05
1.1426382813847548581e-05
1.1424030183209553542e-05
1.141929752242036148e-05
1.1412973098090594692e-05
1.140588885219766206e-05
1.1398364895067368159e-05
1.1390417768109017699e-05
1.1381995721491324505e-05
1.1372133657363690901e-05
1.1360288912524625852e-05
1.1348817969386106356e-05
1.133647412114255675e-05
1.1324391631449511254e-05
1.131129218357328602e-05
1.1298326187078323564e-05
1.1284291558526820379e-05
1.1270415984083669998e-05
1.125563734814787906e-05
1.1241334315272100353e-05
1.1226447972430398352e-05
1.1212419502870318112e-05
1.1198034791262778288e-05
1.1184614112841732191e-05
1.1170885274876506945e-05
1.1158002982525153394e-05
1.1144689356592036358e-05
1.1132117969856999948e-05
1.1118962929912714705e-05
1.1106534820666594582e-05
1.1093438819558557935e-05
1.1081030228716513895e-05
1.106792267696291387e-05
1.1055401086443807128e-05
1.1042220939243725856e-05
1.1029663509349633301e-05
1.1016586538939392346e-05
1.10042597252245037e-05
1.0991504504833011119e-05
1.0979485730673122033e-05
1.096697488029416324e-05
1.0955063174375655698e-05
1.0942551052722934105e-05
1.0930538044442543523e-05
1.0917836787017711069e-05
1.0905739190719200118e-05
1.0892945134135692097e-05
1.0880873437999353582e-05
1.0868198780225598541e-05
1.0856207527347260018e-05
1.0843720185850494659e-05
1.0831857252897232296e-05
1.0819449206276472505e-05
1.0807670429861312305e-05
1.0795163226987115052e-05
1.0783249781933069048e-05
1.0770555316328508136e-05
1.0758395766689002307e-05
1.0745446671092636671e-05
1.0733053062977211724e-05
1.0719733025588323554e-05
1.0707082325172765595e-05
1.0693394243641609194e-05
1.0680525577014372018e-05
1.066667855659328857e-05
1.0653739446315723381e-05
1.0639979433517002675e-05
1.0627162461478250648e-05
1.0613545477956647282e-05
1.0600893504143635353e-05
1.0587437365189714594e-05
1.0574985975494496164e-05
1.0561692238774427862e-05
1.0549362997228724817e-05
1.0536038283232228128e-05
1.0523589211247479588e-05
1.0510150209239712746e-05
1.0497592651293008816e-05
1.0484124312623117477e-05
1.0471674353669488568e-05
1.0458311924395278031e-05
1.0445959494800498909e-05
1.043271283192154785e-05
1.0420340746754571884e-05
1.0407029392293241484e-05
1.0394595668010758516e-05
1.0381140549530358709e-05
1.0368682051334113565e-05
1.035514128465589701e-05
1.0342675964930875382e-05
1.0329154327056407474e-05
1.0316730039173155621e-05
1.0303207279250434317e-05
1.0290859692227814504e-05
1.0277330798712085315e-05
1.026496154359254266e-05
1.0251486742345297635e-05
1.0239251136875428182e-05
1.0225910389786509156e-05
1.0213999914022067181e-05
1.0200978294888614291e-05
1.0189264631699762852e-05
1.0176378895414157482e-05
1.0164838446113944127e-05
1.015187112419942207e-05
1.0140253111596321341e-05
1.0127225941165892434e-05
1.0115404961963394371e-05
1.0102214318070856084e-05
1.0090365917235901975e-05
1.0077144543961440788e-05
1.0065359445669579935e-05
1.0052167095581972454e-05
1.004061603668582923e-05
1.0027535782574728494e-05
1.0016099186736147786e-05
1.000308134185219473e-05
9.9916888650395040649e-06
9.9786099367518367096e-06
9.9672362012653504057e-06
9.9540416074615640894e-06
9.9425814100720787017e-06
9.9293034987854372834e-06
9.9177915428720832714e-06
9.904492139669649175e-06
9.8931099154111013601e-06
9.879959692470623533e-06
9.8689190533599653355e-06
9.8560695898286778191e-06
9.8453732862076048939e-06
9.8327990713439595666e-06
9.8223160753548948804e-06
9.8097003646343738025e-06
9.799259765604707815e-06
9.7866117336063135194e-06
9.7761080183186185958e-06
9.7634146551985859144e-06
9.7529695779802057064e-06
9.7403309947575440568e-06
9.729970301575763619e-06
9.7173648728480273312e-06
5.1176121779916991338e-07
6.3757759747567367941e-07
7.3478595170319955994e-07
8.0122927404864356242e-07
8.9903505947832448714e-07
1.0171130073972754284e-06
1.1087030308415404164e-06
1.1843787924882479826e-06
1.278296273223197031e-06
1.4046646374747715146e-06
1.53437618218703533e-06
1.6163656119126682345e-06
1.6669799474555049723e-06
1.7537948862869702351e-06
1.8805300262626538063e-06
1.9940999256277095828e-06
2.0695756182485138749e-06
2.1253667096631614229e-06
2.1784344363120678526e-06
2.2514276333243716121e-06
2.3266383805730772736e-06
2.3736923581051623689e-06
2.4284349792845770803e-06
2.5500324857088184911e-06
2.7388710446037825967e-06
2.8754375208159351667e-06
2.9358049531201372088e-06
2.9892667077686620162e-06
3.0930725477812359806e-06
3.2129541774964702491e-06
3.2897202162971265472e-06
3.3268771208250679845e-06
3.3759423404617024177e-06
3.4645070688164464254e-06
3.5657183305337584599e-06
3.6406802110039179886e-06
3.6820329658941759477e-06
3.7211433845606020601e-06
3.8017963832462607191e-06
3.9430879160972184087e-06
4.1059170336474603378e-06
4.2510683019548093595e-06
4.3589942214854280212e-06
4.4308211627265174171e-06
4.4740626982510174416e-06
4.4988163157056750268e-06
4.5187702110063377996e-06
4.5506411722484990917e-06
4.6060685298933896992e-06
4.682470286548833786e-06
4.7672072869877524682e-06
4.8478740041816783282e-06
4.9191722249712032026e-06
4.9804617511728453938e-06
5.0318212282114001233e-06
5.0719344615197149096e-06
5.1048655691025502436e-06
5.1457788814383716069e-06
5.2139917917099651721e-06
5.3192539998338138761e-06
5.4507710453095459374e-06
5.5818820640611862999e-06
5.6875469353605165686e-06
5.7600306305977649727e-06
5.809196816044207175e-06
5.8529653675547802777e-06
5.9055163777196367005e-06
5.9718994824193143167e-06
6.0493477448784047353e-06
6.1310021031162509775e-06
6.2074928438813223728e-06
6.2717171024464143315e-06
6.3194733170542947024e-06
6.3494573893479834274e-06
6.3640694865587734856e-06
6.370416297398350448e-06
6.3791061136853598608e-06
6.4016841298290965714e-06
6.4670572227727044585e-06
6.5974629224407238513e-06
6.736852226858924395e-06
6.8668434189760985364e-06
6.9738476582531882291e-06
7.0501216043044351531e-06
7.0952440870701603755e-06
7.1163028010039660725e-06
7.1258583901732604576e-06
7.1390244650346121831e-06
7.1713807778502022307e-06
7.2587878653083837206e-06
7.425074996332248461e-06
7.5961461083474300109e-06
7.7394334632904635994e-06
7.8326952198938731354e-06
7.8719585735320566982e-06
7.8755730425688172158e-06
7.865325180578485565e-06
7.8457426453102704071e-06
7.8404715191477702578e-06
7.8651991599250223536e-06
8.0148582235290236222e-06
8.2887817898682189971e-06
8.4605889084593298091e-06
8.5418749293528141198e-06
8.5681490758559568664e-06
8.5703644747527291879e-06
8.5661838262733890114e-06
8.5615524225554417515e-06
8.558511305246636639e-06
8.5625627456360148482e-06
8.5905987622382186186e-06
8.6271763014824314988e-06
8.6481928110187913439e-06
8.6542454942829803076e-06
8.650360092174149001e-06
8.6424236984461278403e-06
8.6264131131752127163e-06
8.6121261043933306813e-06
8.6065972311001986126e-06
8.617490664704559558e-06
8.6946940362516855901e-06
8.89250001819941596e-06
9.0504736822344816229e-06
9.1481067051338132019e-06
9.2036385691573176319e-06
9.2382128402608597924e-06
9.2718863613303454757e-06
9.3161661067016239963e-06
9.3745850714992002948e-06
9.444558280142827995e-06
9.5196059529706310174e-06
9.5902352759689932498e-06
9.6470982259334338554e-06
9.6825650928103609242e-06
9.6950210095451993305e-06
9.6913014851055361292e-06
9.6805855840068714686e-06
9.6511062093829780994e-06
9.6167012756191220493e-06
9.6020339625648539665e-06
9.5993104231948996871e-06
9.6265202465972285679e-06
9.739878015388382494e-06
9.8588091904973684706e-06
9.934050332370922642e-06
9.9831035947911510992e-06
1.0023574648900432011e-05
1.0071041877599035236e-05
1.0131676878383333337e-05
1.020914037585754276e-05
1.0298466688049643779e-05
1.0391255652375308016e-05
1.0476154045774682588e-05
1.0540432206740502522e-05
1.057641904447983582e-05
1.0585272610454368446e-05
1.0578505433646959673e-05
1.0560294038762534744e-05
1.0503378445588136208e-05
1.0433756044521320147e-05
1.039473550447157439e-05
1.0378764375202191526e-05
1.0373300943237310671e-05
1.0384358895354904814e-05
1.0455542055135437897e-05
1.061037677581508648e-05
1.0734789190601187644e-05
1.0815278003166333936e-05
1.0855352324965956932e-05
1.0875247342064271665e-05
1.0908384936502418461e-05
1.0980918906464755912e-05
1.1087054961152154755e-05
1.1205552545341524568e-05
1.1312074103824984098e-05
1.1387338704863494201e-05
1.1423524773856895751e-05
1.1428046185449102621e-05
1.1418653289784004277e-05
1.1390197449083748029e-05
1.1300300528331650083e-05
1.1191271905741981326e-05
1.1121740799298281854e-05
1.1088524983075267669e-05
1.1077790463108060944e-05
1.1080753719483436644e-05
1.1131144950665323876e-05
1.1259095455188326387e-05
1.1366686086861869237e-05
1.2494807404796125805e-05
1.2500660813581225176e-05
1.2582718379692884493e-05
1.2790241241817754356e-05
1.2934417535365079634e-05
1.3007875234613612854e-05
1.3041805928269127482e-05
1.3059736640839213575e-05
1.3072641680566247872e-05
1.3078891220553401524e-05
1.3075885675357492216e-05
1.3065363034894608921e-05
1.3043326971527781805e-05
1.2974958881201750218e-05
1.2787597314127651646e-05
1.2597548374050122769e-05
1.2464593153583241578e-05
1.2383035890704084518e-05
1.2339883694833236199e-05
1.2319461227024062108e-05
1.2308821838593245377e-05
1.2300947032289586772e-05
1.2296400602171937504e-05
1.2299804401294208147e-05
1.2302757740023359249e-05
1.2301717672668634299e-05
1.2296812409647700008e-05
1.2288905006247520749e-05
1.2279323009226446038e-05
1.2265613609197571768e-05
1.2236352320088342261e-05
1.2178598794701413826e-05
1.2126431139518101298e-05
1.2085488162016999735e-05
1.2055230347081150283e-05
1.2033250187831358907e-05
1.2016903051682950213e-05
1.2003905251165933812e-05
1.1992732639293565412e-05
1.1982816183613639595e-05
1.1973550417977001724e-05
1.1964899230091843315e-05
1.1957294160841080687e-05
1.1952920897698192571e-05
1.1957584189411237682e-05
1.1967137233805815493e-05
1.1974449516235045413e-05
1.1979683613032224949e-05
1.1982782561556527348e-05
1.1983985854676357171e-05
1.1983349491114391971e-05
1.1981478918018641867e-05
1.1978702767052511549e-05
1.197568260388602109e-05
1.1973281553203703474e-05
1.1972546707171949655e-05
1.197435480292477471e-05
1.1978806469161394554e-05