/*--------------------------------*- C++ -*----------------------------------*\
  =========                 |
  \\      /  F ield         | OpenFOAM: The Open Source CFD Toolbox
   \\    /   O peration     | Website:  https://openfoam.org
    \\  /    A nd           | Version:  12
     \\/     M anipulation  |
\*---------------------------------------------------------------------------*/
FoamFile
{
    format      ascii;
    class       volScalarField;
    location    "0.0089";
    object      rho;
}
// * * * * * * * * * * * * * * * * * * * * * * * * * * * * * * * * * * * * * //

dimensions      [1 -3 0 0 0 0 0];

internalField   nonuniform List<scalar> 
75962
(
1.1705130009374575817
1.169227526296974462
1.1691832734504485902
1.1682584444742052376
1.1684765813830704229
1.168415021735710102
1.1679870848598481459
1.1681483061376751742
1.1679533220982245556
1.1671626099140821609
1.1668837743254891759
1.1673210033258525353
1.1678871663518370916
1.168141656206335588
1.167790805163835044
1.1668873643320143429
1.1660972624993704017
1.1660238431160088179
1.166556333544460422
1.1670897840917640043
1.167310216451198368
1.1671663002049468272
1.1666962294714808834
1.166285971116630682
1.1661999995739809055
1.1663038645509569147
1.1663946783296847975
1.16657960846848896
1.1667469801411070041
1.1667393185405421363
1.1666102642886595486
1.1664176377359427583
1.1660727366828267382
1.1655335728610083379
1.1650799385199452907
1.1649940724119447477
1.1651437356706728643
1.1651045101805779236
1.1648592630090455202
1.1647154180098879817
1.1647144632428003685
1.1646771529784865074
1.1645653040864523131
1.1645710258211006138
1.1647253977372482581
1.1647653332151193251
1.1644852736034914109
1.1640507057650744116
1.163853046217725673
1.1640742178506719995
1.1644797076377311207
1.1647352262354906394
1.1647920903078003985
1.1648167259786996741
1.1648474519566951457
1.1647061716252937735
1.1642431032149505032
1.1635761033858720292
1.163066858865857478
1.1630706060297637539
1.163588356971634763
1.1643168120654927566
1.164822063831989718
1.1649144664992836518
1.1647468515391832256
1.1645818025552858721
1.1645655225404376587
1.1646576829968564581
1.1647605896005324144
1.1648657201076020318
1.1650301247218488587
1.1652634778370047908
1.1654886827772183988
1.1656321904112694199
1.1656646164521693443
1.1656240397780670559
1.1655597699022695046
1.1654906892232401727
1.1654071089096988967
1.1652943860586397751
1.1651780297366789441
1.1650988111130464731
1.1650415277145855786
1.1649013018430558475
1.1645800979593114999
1.1640974606594172158
1.1636345579023152919
1.1634581279348592542
1.163644704276125097
1.1640911953505586052
1.1645419945738539891
1.1648037323777757912
1.164856076884687841
1.1647846074958316809
1.1646749735380470536
1.1645790044280563968
1.1645177058058986397
1.164462943096914449
1.1643396254843623172
1.1640841580704466285
1.1636856743723287266
1.163205219746141994
1.1627128022076786973
1.1622966417442643916
1.1620522043797427703
1.1620746046130054907
1.1623947761744997109
1.1629040202884832755
1.1634422687144860831
1.163851083151013821
1.1640590467536939823
1.1641003830844813827
1.1640243186178276247
1.1638412702518659003
1.1635318470445565886
1.1631523616586041392
1.162834865284652075
1.1627187904556943732
1.1628241505969807434
1.1630367272755219865
1.1632007101881229882
1.1632184256339488382
1.1630630964364687685
1.1627436753547726322
1.1622977731921300126
1.1618114234103700255
1.1614222632695092585
1.1612311460284323594
1.1612294837926349089
1.1613236330373779559
1.1613646269867781147
1.1612679038133142395
1.1610633712082609748
1.1608712536917873415
1.1608105516027056314
1.1609145505659803632
1.1611076008500931245
1.1612612112291356148
1.1612758413137267421
1.1611136910876513895
1.1607734779676015524
1.1602784485646568946
1.1596772618923347764
1.1590571479120770348
1.1585502148673501033
1.1582851880178088866
1.1583192380282389955
1.1586083314415553946
1.1590239973193694478
1.159420981734288425
1.1596718108288694982
1.1597190509919002022
1.1595918161155018833
1.1593834087278511724
1.1592150503421734253
1.1591745033146896304
1.1592671925090309859
1.1594243756254625222
1.1595410439167725958
1.1595395608032186274
1.1594118986754406997
1.1592019106493922642
1.1589740969951725091
1.1587801457143618311
1.1586436859958770818
1.1585731860035981544
1.1585645718747474842
1.1585966617972556225
1.1586318038459753055
1.158621751466881511
1.1585334763540906522
1.158375868661407404
1.1582082953837191663
1.1581247104376908297
1.1581972785668455117
1.1584368838637464361
1.1587767197138474362
1.1590963008720720495
1.1592821607173744436
1.1592733903306888799
1.1590740668692289805
1.158741103984098908
1.1583498444849251729
1.1579712045928989284
1.1576561480563225537
1.15743344375731394
1.1573140913926660556
1.1572934837357522486
1.1554840833586228488
1.1553934135450121268
1.1555415203253489587
1.1558963676939904008
1.1563751269656015186
1.1568637128615695264
1.1572589238940826917
1.1575005455575162472
1.1575831368146622946
1.1575477718068414301
1.1574539118983115937
1.1573526250986201358
1.1572648478229174973
1.1571859197222422733
1.1570960509182133258
1.1569849119326405251
1.1568646775107465086
1.1567663563612828881
1.1567279908524052967
1.1567751570597124555
1.1569056774086003969
1.1570880365859919081
1.1572767590552566208
1.1574228670338180258
1.1574897748809946929
1.1574636201936800983
1.1573527667301777289
1.1571790676711097845
1.1569701637748566192
1.1567547496229733106
1.1565554931013835027
1.1563866126888244779
1.1562561275755538492
1.1561625741640846332
1.1560982549908633832
1.1560535555257278606
1.1560279258656358525
1.1560347772402141953
1.1561059613438575688
1.1562855168006005435
1.1566126710119426502
1.1571022791778196037
1.1577372597328765558
1.1584680571155714368
1.1592246599632614057
1.1599471922168924642
1.1605982551815343662
1.1611692876934542884
1.1616682999317704539
1.1621067133966129781
1.1624894471745965685
1.1628136746486539277
1.1630778096633040963
1.1632902728267822123
1.1634680047990570984
1.1636287862425105377
1.1637784864552787045
1.1639079896892656762
1.1639992245434740425
1.1640355705810805365
1.164007062420390648
1.1639199561551554218
1.1637913234507568649
1.1636543054095260796
1.1635410616051080623
1.1634793933892055851
1.1634901964794832629
1.1635702236034000112
1.1636935517446909127
1.1638222058119382929
1.1639150458855829218
1.1639358651375393272
1.1638675364949153668
1.1637215367907904895
1.1635339641942790134
1.1633531579001341605
1.1632220769727761311
1.1631679848466656146
1.1631936184352220653
1.1632774190459505004
1.1633816540810242302
1.1634668385010342728
1.1635047566076048842
1.1634861780330836289
1.1634231171733002697
1.1633411607600410154
1.163269280702000863
1.1632278543219427558
1.1632209117211136373
1.1632371516959474356
1.1632573263705159317
1.1632652247131818335
1.1632540602693011156
1.1632257972505097854
1.1631887669882319258
1.1631501366584868773
1.1631116993201704446
1.1630727607096722487
1.1630326690408836487
1.1629925593575285436
1.1629543821785812696
1.1629189653305493923
1.1628849608674467486
1.1628509729015650276
1.162819310218568658
1.1627984164748264018
1.1628007204565282695
1.1628363572796760472
1.1629073932320646012
1.1630034080511002514
1.1631013584388130155
1.1631733404465489645
1.1631970285762538442
1.1631658312046631032
1.1630915861355122232
1.1629997123163144934
1.1629213035514143204
1.1628836681038379197
1.1629037344668511356
1.1629855667486963533
1.1631214894354089395
1.1632953904412373092
1.1634857116126879895
1.1636691536438141803
1.1638238077450144825
1.1639312113944337845
1.1639777919438909493
1.1639562104722731561
1.1638660107149578771
1.1637141689206880191
1.1635146650161916071
1.1632875324679665674
1.163058106044822626
1.1628542780255239908
1.162702473911678247
1.1626225017504030479
1.1626229189414485354
1.1626985614882212605
1.162832006446941957
1.1629976441325813319
1.1631676621834214913
1.1633173330420980562
1.1634291214572909379
1.1634939145985254694
1.1635099214728881201
1.1634815421813446967
1.1634165102883557985
1.1633257137013204296
1.1632225519957883897
1.1631227449509369265
1.1630424693312277906
1.1629947121978359004
1.1629854968493598122
1.1630113279859228825
1.1630595381452384363
1.1631129436650016196
1.1631550723793742108
1.1631771733882412256
1.1631800827264462406
1.1631740374610304301
1.1631742707273373671
1.1631963233762838694
1.163249921545890686
1.1633373173414351953
1.1634525211945707657
1.1635848511287940621
1.1637215077966478471
1.163851461622395389
1.16396581107595809
1.1640571532961501156
1.1641190544836372833
1.1641459682406030129
1.164133643090023762
1.1640786593859602238
1.1639809324623473508
1.163845035469553757
1.1636806514412629809
1.1635024359546624062
1.1633269747734300559
1.1631703110503568421
1.1630462850970777477
1.1629617454072174176
1.1629169219775796762
1.1629062275758583755
1.1629176086133179435
1.1629371438079481038
1.1629526796876650252
1.1629574855779289955
1.1629501644103972247
1.1629347300030559165
1.1629207046666591996
1.1629173759046254055
1.16293022572625393
1.1629610358236990297
1.1630066066454689544
1.1630597940031615067
1.163111816315091307
1.1631533743407471704
1.1631762173236410707
1.1631754155314468768
1.1631512412070021956
1.1631077321040979022
1.1630506663523108024
1.162985436157230712
1.1629150293422501061
1.1628401295776229496
1.1627604187160405225
1.1626768233933806318
1.162593547469928934
1.1625190341696862717
1.1624646218038823253
1.1624419121933824428
1.1624582874206592642
1.1625136060980740815
1.1625989585055513942
1.1626981226533878999
1.162791333034278729
1.1628603179729777306
1.1628928026312488342
1.1628855732154712577
1.1628443708923408284
1.162781418058242755
1.1627114973535721543
1.162648375265641798
1.1626024098880591851
1.1625790764284968937
1.1625787517662606874
1.1625969890305536403
1.1626259479901226435
1.1626554269687521259
1.1626751059192730331
1.1626760479375795043
1.1626524254540155923
1.1626022444547461365
1.162527556891757019
1.1624342944496632857
1.1623315176053885533
1.1622308424354754752
1.1621449276868129896
1.1620853384552400911
1.1620602883336121902
1.1620733374404179639
1.1621228566187040698
1.1622023337010209953
1.1623016234569096827
1.1624092435046551319
1.1625144907238076364
1.1626096021268950143
1.162691081820784289
1.1627594590145791109
1.1628179351549106091
1.1628702789423008834
1.1629194075028252975
1.1629660339986769291
1.1699411494182119231
1.1687161597597250928
1.1675038658256644553
1.1683494439198411907
1.1690657249700620035
1.1686107325150105751
1.1678819303024323695
1.1680586770057383994
1.1684576489787967812
1.1679914548403014241
1.1676156764189367099
1.1678438761258358447
1.1680722327352286438
1.1680774054075424573
1.1679731227796943394
1.1675791835314437428
1.1670002512725103916
1.1668379153089707412
1.1673177687948232961
1.1677678782573572835
1.1676298225153172172
1.1670239808108708868
1.1664462388592125031
1.1662216900673640918
1.1661238563542890567
1.165960679617903839
1.1659789970922063151
1.1663845273377038136
1.1667292438082832451
1.1666338938006672876
1.1663506610512908157
1.1662234568956264535
1.1661801408475471753
1.1659047056922351437
1.1654760547287834616
1.1653045524855201176
1.165396481673156126
1.1653874299130482228
1.1652151262239136553
1.1651165556398324075
1.1651002843809858955
1.1649668756292259619
1.164742843824405405
1.1646671622095454701
1.1648047537794845585
1.1648915493100189256
1.164663894294789559
1.1642207194863545272
1.163938138171836556
1.164067279844528624
1.1644587685331937443
1.1647501840157568065
1.1648024352057511077
1.1647699235545483365
1.1647643375187208825
1.1646283334702449697
1.1641743636091450576
1.1635381346702915462
1.163175836752807113
1.1633335963816073821
1.1638615886160166291
1.1643501965356073402
1.1645332811234652137
1.1644862724029141354
1.164373259992615095
1.1643381351904180665
1.1644129691720435105
1.164570730517862307
1.1647718154564463688
1.1650153155884586109
1.1652873163008865554
1.1655205786632227838
1.1656527363925774932
1.1657053364674694329
1.1657074721741482737
1.1656653996876442658
1.1655605051418125306
1.1654213041234928738
1.1652914460322447709
1.1651979381632684429
1.1651565499397402714
1.1651373860790588122
1.1650958234064274777
1.1649537248172190385
1.1646232874115680644
1.1641416824730044244
1.1637154799188096366
1.1636151876144660289
1.1639220405922352519
1.1644473041565908122
1.1648852807284855171
1.1650556884569009952
1.1649815654631956452
1.1647965112366451823
1.1646122093554311938
1.1644832411841030684
1.1644265899452792556
1.1644058774841938853
1.1643440055789646692
1.1641670459516606506
1.1638470326348369088
1.1633939180912535871
1.1628565072861760665
1.1623598384933675476
1.1620916836166601538
1.1621830319349684135
1.1626325030186075438
1.1632544028397608926
1.1638067377211265274
1.1641117806254499545
1.1641545211895780731
1.1640207646956652887
1.1637921208031811737
1.1635016424737023577
1.1631597517020031418
1.1628377162017451418
1.1626434418506890189
1.1626541693450154202
1.1628400736622599432
1.1630844379990559201
1.1632730415137548796
1.1633391416436276167
1.1632366814274417433
1.1629258808094873334
1.1624233332305831112
1.161841568094380106
1.1613479582016950076
1.1610892840405975246
1.1610682361149153863
1.1611657812635662879
1.1612275186209874978
1.1611813011382641214
1.1610565978020626066
1.1609441717105586367
1.1609094218979589819
1.160940729766130497
1.1609852777652609479
1.1609904368008716613
1.1609361512041558306
1.1608053764367358696
1.1605650905930642303
1.1601703852493927549
1.1596215896704218373
1.1590098226646783353
1.1584926633017365027
1.1582163052959528748
1.1582439523122509684
1.1585254035910952375
1.1589250491268063836
1.1592870204894931696
1.1594879635330792578
1.159469330688686961
1.1592719139735923051
1.159018301575974963
1.1588515240335712786
1.1588599665309169406
1.1590262729801645847
1.1592481484179038009
1.1593968791498339144
1.1593924721738713135
1.1592401256189441838
1.1590044175422162809
1.1587680890579867832
1.1585885311356749483
1.1584891003990065439
1.1584666463894133237
1.1585033072877799487
1.1585677613562819221
1.158615037638291545
1.1585986079428303164
1.1584943781054277689
1.1583192723990216599
1.158139095483803116
1.1580451103854669803
1.1581087925171742459
1.158341351791779994
1.1586719570173160676
1.1589785678005846137
1.1591459230128222657
1.1591150932274441043
1.158897307475699856
1.1585569963783803882
1.1581745459327479342
1.1578202083883490925
1.1575421936598708772
1.1573601369452748422
1.1572735793253197123
1.1572675001030805486
1.1573241471528730173
1.1556977555588374695
1.1553865506259091145
1.1552588948902524635
1.155352408385862395
1.1556559476510035456
1.1560981755613946032
1.1565745442934964871
1.1569758479924552308
1.157224992612972736
1.1573012190508535912
1.1572438287961976933
1.1571218106733596187
1.1570037786295519489
1.156922591468414252
1.1568713978983611312
1.1568217435987571129
1.1567519886791581829
1.1566694359908085143
1.1566071000844604377
1.1566082395607568678
1.1566980042768546522
1.1568687668752972719
1.1570803331269339242
1.1572772770270043363
1.1574061531756354437
1.1574329888837384672
1.1573504061636514795
1.1571775229052281286
1.1569495618539986648
1.1567018321317483753
1.1564633526401706387
1.156252300803102262
1.1560742166993220881
1.1559300070311859798
1.1558165897057821603
1.1557334508748047242
1.1556795876748544583
1.1556637884761205015
1.1557072199412914415
1.1558380788265638639
1.1560919546239247779
1.1564946634713668683
1.1570519509584615836
1.1577391701815877845
1.1585007504969293546
1.1592741527787786548
1.1600024516272691155
1.1606487558788927128
1.1612072936292736625
1.1616912280623401532
1.1621171191351875596
1.1624943387210484591
1.1628244857341014651
1.1631099043187163034
1.1633552691144861679
1.1635675304175256972
1.1637500549615833467
1.1639000051393859625
1.1640120094449235566
1.1640776287212566409
1.1640920452272889296
1.1640615084297150084
1.1639949747780642397
1.1639068242819907706
1.1638148055642003609
1.1637336586922359949
1.1636790278253015263
1.1636636577428676187
1.1636864711705896536
1.1637335297691913105
1.163782439412619274
1.1638051804501312603
1.1637775944497441571
1.1636922547695502939
1.1635654294194075487
1.1634295644639649492
1.163322992277384671
1.1632751953768043496
1.163295544743808918
1.1633711426192112626
1.1634675998445327405
1.1635428414584778611
1.1635651261151975788
1.1635195885945539551
1.1634126436809770766
1.1632701582621183256
1.1631292991845962881
1.1630236826751068069
1.1629734659508041972
1.1629800205886886566
1.1630243757161671248
1.1630765326739911369
1.1631122368820372426
1.1631191860964682494
1.1630968977797955244
1.1630541166289984911
1.1630018483996586998
1.1629468899387429559
1.1628933327744050974
1.1628441269032279148
1.1628024108589893881
1.1627706930205028435
1.1627500317919545747
1.1627375035804317083
1.1627305979970750105
1.1627305884177430162
1.1627441325053564647
1.1627795493083994405
1.1628426653944350377
1.1629308852946238506
1.1630298523899305074
1.1631163259232051299
1.1631668578975276063
1.1631687235240955047
1.1631253158314087681
1.1630549729392478664
1.1629844455451923135
1.1629394253459968134
1.162937203842574041
1.1629836433202480617
1.1630752733268985288
1.1632035082815417315
1.1633582101400277153
1.1635283724187246435
1.1637005444686392419
1.1638575415350098652
1.1639793852790298878
1.1640451482980751496
1.1640376601352084851
1.1639481329850400737
1.1637808262812558979
1.1635532860696786717
1.1632937602476272065
1.1630361646746443238
1.1628150489567949943
1.1626602417433395953
1.1625917624527968286
1.1626160033236736524
1.1627245918334199182
1.1628960298766448656
1.1631001671578289347
1.1633055590283476466
1.1634851469948441771
1.1636197602210305302
1.1636996490160194107
1.1637232347397727938
1.1636960789651134007
1.1636281073216871995
1.1635320214310409526
1.1634241558875100253
1.1633217590811419928
1.1632408291370228692
1.1631922243911518855
1.1631784635392745653
1.163192087773766259
1.1632186471704613062
1.1632415024063671449
1.1632481917812407257
1.1632350307615966223
1.1632085572921471162
1.1631832076666970277
1.1631756289328742948
1.1631997579317421287
1.163261688145162065
1.1633580518116999336
1.1634785481250833339
1.1636093185636524616
1.1637368297268095851
1.1638508736502375385
1.1639461915447379958
1.1640193423896063596
1.1640683064372157052
1.1640911030713296803
1.1640853790486480612
1.1640492337951957591
1.1639808463142025108
1.1638806798033261014
1.163752384272813023
1.1636045985555238946
1.1634496920601375969
1.1633022140766848818
1.1631765202658086444
1.1630849456451868296
1.1630330437832658852
1.1630206931791213787
1.1630402911975425972
1.163078128218605789
1.1631184817311319701
1.1631484781357284142
1.1631625080341989609
1.1631604007954687852
1.1631485295896066834
1.163137965380471206
1.1631378229537066016
1.1631533311211057491
1.1631841467439463234
1.1632238113940607249
1.1632630119325957363
1.163292225101962174
1.1633036157686764689
1.1632928633070076518
1.1632607660904210611
1.1632118045386221628
1.1631519287501657089
1.1630866008702642755
1.1630190500309445234
1.1629495137185354992
1.1628765185509810642
1.1627994829389791676
1.1627212620769622475
1.1626491738290887223
1.1625940994368779702
1.1625675589142077104
1.1625775129120083928
1.1626251100250950543
1.1627031051225478198
1.1627970592546357231
1.1628885235901402773
1.1629601566204812446
1.1629996642763751336
1.1630026575411021028
1.1629732361001934304
1.1629222953188345091
1.162863800257179836
1.162811292730703272
1.1627750243185823731
1.1627609268970247047
1.1627695362908303522
1.1627965640819120097
1.1628339203816420167
1.1628711403803650981
1.1628971200020878918
1.1629022753897508835
1.1628806531772384325
1.1628308291485018877
1.1627560196100472645
1.1626637713159670984
1.1625648712050875577
1.1624716126300684849
1.1623960562032473742
1.1623486859897618206
1.1623365509263863249
1.1623620926638409401
1.1624227184853759276
1.1625109957259507354
1.1626162160371151799
1.1627267193751620322
1.1628322768456060832
1.1629261316405163917
1.1630059089795528049
1.1630727991491043305
1.163130421894388089
1.1631828390635936543
1.1632329571835364757
1.1632818989027218226
1.1681259313599070548
1.1660205136864156827
1.1671542253630002861
1.1675645854143890112
1.1671901069145995677
1.1668735966638899004
1.1673219771977136894
1.1677915955962938632
1.1680459049245970338
1.1681936990040513447
1.1679918670633475664
1.1676690114284149491
1.1674445150393930604
1.1675371191661059189
1.1679750789411307288
1.1681723720083381224
1.1678087135368209193
1.1675895621155103488
1.1677960320705680353
1.1678340692379405308
1.1672626737001172703
1.16647745751210552
1.1661745395590599195
1.1663656487718472299
1.1663874140690826398
1.165879347561677104
1.1655276247090924358
1.1658312437993660904
1.1662983815185741232
1.1663455575440135892
1.1661937031639533213
1.1663052294148765764
1.1666038247583612186
1.1666162834089148781
1.1662455247916356793
1.1659322665678955033
1.1658694821945239095
1.1658431978485737091
1.1657222623638157089
1.1655640888814269296
1.1653582929291261827
1.165045966544972611
1.1647524082731273154
1.1646607618042741361
1.164823457817827812
1.1650032650117350119
1.1648965194503722032
1.1644826543857236256
1.1640895418554504381
1.1640778575820438512
1.1644290089118443099
1.1647719869423804884
1.1648803198556754168
1.164860044695269492
1.1648394282129528321
1.1646884142748288316
1.1642745169529244986
1.1637954378044941262
1.1636147567245094248
1.1638046764363256802
1.1640915559384938938
1.1641937113224143374
1.1641114050613656783
1.1640281352382237934
1.1640700840606446054
1.1642341001759823893
1.1644927335007959623
1.1648002098899985501
1.1650853901012145908
1.1653118948557457113
1.1654629499228588152
1.1655149440385326187
1.1654825518315401478
1.1654384695803921002
1.1654229933389219642
1.1654129990563080188
1.1653658089220677585
1.1653008534663908957
1.1652699842798399654
1.1652703895843647963
1.1652504018711424827
1.1651810789827568016
1.165075877318437314
1.1649034730558214257
1.1645958855364697548
1.1641763154643915978
1.1638554256007815901
1.1638497730152630449
1.1641962797106266692
1.1646398899939878202
1.1649105529417715932
1.1649199547614246253
1.1647525749378031534
1.1645441486456757918
1.1644005617462349633
1.1643518431079069586
1.1643848997570271919
1.1644437726451069004
1.1644491786634434405
1.1643200292495212711
1.1640068011703796902
1.1634959295746325481
1.1628711219533962584
1.1623330394647737318
1.1621144580180835515
1.1623433504350773049
1.162910660654481898
1.1635568686564747853
1.1640140887917476142
1.1641639100870406764
1.1640376372681477957
1.1637301276598528421
1.1633516605473948058
1.162983571471298827
1.1626891145772453307
1.1625286316272767095
1.1625308971819650061
1.162664933876899509
1.1628398399704391597
1.1629799193052130502
1.1630548182954969505
1.1630450431122869581
1.1629200720578416473
1.1626316137991310473
1.1621729158667695181
1.1616466143520438603
1.1612177909301937273
1.1609990673014731755
1.1609867344930002719
1.1610590986555702209
1.1611090682069709068
1.161093845968265148
1.1610423073172180253
1.1609959448680020611
1.1609597850659247875
1.16091139069567717
1.160822076099981226
1.1607132742881547394
1.1605965394441546401
1.160456733898994619
1.1602368620640501895
1.1598680925984192758
1.1593490087934654742
1.1587924995628999802
1.1583638111553127281
1.158191719312630541
1.1583049261851079414
1.1586234166252988853
1.1589961599317786245
1.1592630403215842261
1.1593203445629205461
1.1591570637556294354
1.1588633652727242662
1.1585950278786296685
1.1584889155631237223
1.1585926730321183253
1.1588454049087653086
1.1591087693908725953
1.1592517381941342958
1.1592095593307119028
1.1590093102697127669
1.1587372513369673666
1.1584862708021996802
1.1583137597842509958
1.1582435055919106937
1.1582658563530827678
1.1583429406519132332
1.1584313728031623292
1.1584826971251098726
1.158464181190632214
1.1583675077487136651
1.1582221695205976442
1.1580854082761684598
1.1580263531638830266
1.1580954942238792515
1.1582944391186849042
1.1585654418172810498
1.158808870378554845
1.1589253230807361472
1.1588623851918677943
1.1586407818568615902
1.1583226373082122773
1.1579859366516527253
1.1576902196693612535
1.157471706394565647
1.1573345237567220778
1.1572652586629095239
1.1572470679829383045
1.1572718997889877013
1.1556875429040325276
1.1553350791330245784
1.155151395877836995
1.1551904703128472729
1.1554520013875204665
1.1558769321032174027
1.1563600115337959728
1.1567815095678883885
1.1570495744816642336
1.1571273720547547992
1.1570434490366434677
1.1568769096146431785
1.1567131576822553551
1.1566060137610545411
1.1565599815842382281
1.1565469001514834257
1.1565338808227754175
1.1565141758771433356
1.1565105378932232227
1.1565593419253039631
1.1566831768302265893
1.1568737758709908281
1.1570886582921704466
1.1572702484543613277
1.1573658227276188981
1.1573463474783893812
1.1572113791270552952
1.1569887678593899771
1.1567232825002953245
1.1564591335473510814
1.1562280276185319394
1.1560430289452507946
1.1558991899263770797
1.155780507137719848
1.1556762560884779045
1.1555874209267185115
1.1555238324807823869
1.155505090020980008
1.1555601977526193114
1.1557222497045411824
1.1560205445802957946
1.1564744838850016251
1.1570829311182977417
1.1578150511008382662
1.1586210932190943446
1.1594384743221988199
1.160211381520656504
1.1609045894237763896
1.1615063155873930345
1.1620222243275253327
1.1624627490652095219
1.1628384307687569255
1.1631598395815536673
1.1634348552767039831
1.1636698251825829953
1.1638653555735107847
1.164017211225155668
1.1641232572986035532
1.1641798732773356306
1.1641908807656162761
1.164168126919816304
1.1641264343700610251
1.1640816445524302392
1.1640426001852326454
1.1640057190751833538
1.1639680556766396347
1.1639290358946496884
1.1638921465028138069
1.1638625483959517126
1.1638421565759498044
1.1638230402848230849
1.163788136684976493
1.1637226648245175831
1.1636254765269464784
1.1635130710676910848
1.1634139979820687927
1.163357460063059623
1.1633630023176140256
1.1634267941004867719
1.1635219865124262206
1.1636080905715970868
1.1636457000548836582
1.1636105308729525198
1.1634991900385216468
1.1633298234741897836
1.1631367393114568909
1.1629605870769532672
1.1628350304976671215
1.1627772470289245987
1.1627852851611755192
1.1628403923058741043
1.1629128976601810219
1.1629740441381903882
1.1630055216223467163
1.1630027263270910076
1.1629692183957474061
1.1629119890554000527
1.1628409896427966963
1.1627658587865272732
1.162695858797888393
1.162640049177335877
1.1626049073923263588
1.1625930182996453421
1.1626024915525559056
1.1626290105479699655
1.1626694374827717393
1.1627241512774120213
1.1627954845050978427
1.1628829959215820633
1.1629786606915113456
1.1630657118905793901
1.1631243567113926929
1.1631414258948826745
1.1631164107954452547
1.163063807820816864
1.1630064632757006748
1.1629670611034423899
1.162961156845914612
1.1629918021791394445
1.1630529944934078213
1.1631371734291038322
1.1632394947657622719
1.1633597842810472489
1.1635006707494943701
1.1636602930894295316
1.1638254267040735179
1.1639711562758559005
1.1640669545704895871
1.1640847553792363911
1.1640082425922213538
1.1638398494128592287
1.1636023716867991418
1.1633324518761334332
1.1630712056664105347
1.1628558079659800928
1.1627145590041993994
1.1626629596889361817
1.162703138480539744
1.162823961007747986
1.1630043870912052384
1.1632166063666875555
1.1634313057835752314
1.1636229960379509407
1.16377278937589268
1.1638692971303954415
1.1639094200181305805
1.1638968134981135805
1.1638409383023871069
1.1637553529763460247
1.1636563835686239976
1.1635613176926788981
1.1634843654959561299
1.1634332918860224027
1.1634075756291493153
1.1633983246480326113
1.1633917557690049982
1.1633742627701140204
1.163338638450188034
1.1632867510829194568
1.1632304369498127627
1.1631867847185863862
1.1631728473023563719
1.1631998761879389637
1.163269979353106498
1.1633749606886212291
1.1634997535460533946
1.1636269969739201358
1.1637418735109381629
1.1638351948539837899
1.163903982777221735
1.1639505265878222762
1.1639792296453030929
1.1639932631050966538
1.1639940240004111871
1.1639799605736584898
1.1639473552997752215
1.1638917564242488023
1.1638096939110398331
1.1637021644627665307
1.1635759383316428561
1.163443912907614175
1.1633216800453691775
1.163225352887377495
1.163167337912986099
1.163152647007895002
1.1631783653338763074
1.1632324466402892416
1.1632977583340267103
1.1633554207200731412
1.1633924276614846516
1.1634047847704367395
1.1633956198758683698
1.1633746932228636872
1.1633540092612442152
1.1633433679266231842
1.1633475439112963556
1.1633639354658484866
1.1633841391418100475
1.1633985198871232836
1.1633986745619941949
1.1633794549558462705
1.163340818237353691
1.1632872159368634613
1.1632252200407831033
1.1631608882090480606
1.1630979614367216168
1.1630371967719046467
1.1629770931479839202
1.1629162947141988838
1.1628559432351608383
1.1628008641076490459
1.162758668297289022
1.1627381171004003146
1.1627458773412298054
1.1627836029170448562
1.1628463560155812839
1.1629233622051506902
1.1630003406817361888
1.1630630086185544947
1.1631008900122852268
1.1631098149422165466
1.1630925745057854037
1.1630577117194296211
1.1630170368699441763
1.1629822808821399516
1.1629622913328721001
1.1629617583694005223
1.1629808075166445658
1.1630153104957079435
1.163057463455292595
1.1630973522735097436
1.1631246726617796572
1.1631306138135482087
1.1631096122267412518
1.1630606911657142
1.1629882696383051499
1.1629013520998052744
1.1628119986736327185
1.1627329595716422439
1.1626754639816261339
1.1626480656721811524
1.1626555866746450807
1.1626983871663469916
1.1627721880008341504
1.1628687722803590088
1.1629776653998820102
1.1630878487577409608
1.1631900603182137033
1.1632783244377473686
1.1633506019850299307
1.1634088290849859959
1.1634577482028090056
1.1635029267130405639
1.1635488673218161715
1.1635974830669422175
1.1636480970805078705
1.1684717322118414184
1.1663028494473874908
1.1652439915624117628
1.166002760989119702
1.1671205702893281408
1.1673617618574496646
1.1676597084238968804
1.1685175868939268184