/*--------------------------------*- C++ -*----------------------------------*\
  =========                 |
  \\      /  F ield         | OpenFOAM: The Open Source CFD Toolbox
   \\    /   O peration     | Website:  https://openfoam.org
    \\  /    A nd           | Version:  12
     \\/     M anipulation  |
\*---------------------------------------------------------------------------*/
FoamFile
{
    format      ascii;
    class       volScalarField;
    location    "0.0089";
    object      rho_0;
}
// * * * * * * * * * * * * * * * * * * * * * * * * * * * * * * * * * * * * * //

dimensions      [1 -3 0 0 0 0 0];

internalField   nonuniform List<scalar> 
75962
(
1.1705462775626067629
1.1692545233172939589
1.1691912259995640433
1.1682593609973739301
1.1684934733951770625
1.1684177926194621033
1.1679961011219470723
1.1681572980718171184
1.1679330199677984137
1.167139528857178199
1.1668885995475279937
1.1673425751314496779
1.1679044986767375125
1.1681405403836453427
1.1677662754407394097
1.1668537546022283991
1.1660807451884229735
1.1660373874856977405
1.1665862225767216209
1.1671175858224422939
1.1673264642392713331
1.1671637073513096983
1.1666802332104007078
1.1662724653664251484
1.1661978122175367112
1.1663105543655793994
1.1664107902131397587
1.1666005623331481278
1.1667606200244977632
1.1667390624186424475
1.1665990242026142987
1.1663989983821345664
1.1660495362411114062
1.1655140401360555291
1.1650754678113384166
1.1650058084381438306
1.1651566162090269962
1.1651083816499261392
1.1648583013531457198
1.1647176234145659723
1.1647173282840086461
1.1646770310926144454
1.1645654925277413305
1.1645757274062451536
1.1647291753137782866
1.1647590004483965309
1.1644681372396252783
1.1640336579130587946
1.1638469545108443004
1.1640777920850731153
1.1644819035290776554
1.1647300255721706463
1.1647841978713662225
1.1648123863587525051
1.1648452796366965956
1.1646984874299450841
1.1642256527379173381
1.1635547121473981402
1.1630526677673278524
1.1630713859806973698
1.1636019626845992558
1.1643340223824507618
1.1648320658405404426
1.1649167058722458279
1.1647451584222809906
1.1645800149194978079
1.1645632887554979717
1.1646528889286924535
1.1647544265474840675
1.1648630972123514837
1.1650348610459342336
1.1652751930222282617
1.1655026088547104646
1.1656436860317891391
1.165671315056562074
1.165625753325138847
1.1655570959481427185
1.165484965723736055
1.1653999148191112045
1.165288377649342566
1.1651764996017779374
1.1651032725425651826
1.1650492452677185806
1.1649066264647141011
1.1645788481259595759
1.164091088136922858
1.1636292535707992712
1.1634606486053680197
1.1636561021325151355
1.164106951558811609
1.1645552536967012092
1.1648113865610318918
1.1648589930413542071
1.1647849595423258595
1.1646742231477482665
1.1645778970445823663
1.1645166386671161884
1.1644610402578634556
1.1643355764914966599
1.1640774272838967374
1.1636772763896179317
1.1631965572617768423
1.1627046221261756465
1.1622896160728786175
1.1620485842340437799
1.1620760058269257176
1.1624011909168845413
1.1629122144481529588
1.1634494528494254695
1.1638550963328051502
1.1640603982584036835
1.1641006234274693387
1.1640229023817199039
1.1638354116661155935
1.1635202472880059599
1.1631374677791135319
1.1628228063811494319
1.16271459310741343
1.162828340210212863
1.163045880068301452
1.1632105533092260696
1.1632255467601924082
1.1630647878690283381
1.1627378892998656568
1.1622845102491048408
1.1617939681025652998
1.1614056577639606527
1.1612194876658115117
1.161223131995247293
1.1613201485684241376
1.1613606807912029151
1.1612623203259904159
1.161057992550307727
1.160868988278157099
1.1608127347658661055
1.1609192933534924208
1.1611112374685950144
1.1612609236163802251
1.1612715958101265112
1.161107065441022046
1.1607658804842921896
1.1602704331977311547
1.1596687955947095894
1.1590490955434333831
1.1585447601456182465
1.1582845720343253326
1.1583242979511687576
1.1586182018467390265
1.1590364426014463373
1.1594331552748942116
1.1596807600036704855
1.1597229923173690835
1.1595904144967430494
1.1593782408213606505
1.1592088233226041094
1.1591697715162712079
1.1592652080136718329
1.1594249612633553692
1.1595433429502988165
1.1595429342559928632
1.1594162653341169023
1.1592071016991161159
1.1589792368874145545
1.1587843708373068985
1.1586466353848792199
1.1585753751357976693
1.1585671667607553292
1.1586003819483066124
1.1586363030572850441
1.1586252607301283923
1.1585342961545723739
1.158373719026491111
1.1582046882055732073
1.1581224172362649671
1.1581983818526189189
1.1584416254921428013
1.1587830711351263524
1.1591009837475443334
1.1592826676631424743
1.1592687647901804837
1.1590650892636789049
1.1587294873499922598
1.1583374815966778204
1.1579598184950352646
1.1576467526591671664
1.1574265578226461404
1.1573097730541521688
1.1572913819268315638
1.155484650225161003
1.1553961736325870646
1.1555462012320238951
1.1559012158905941359
1.156377341046917584
1.1568607499833896135
1.1572497719967038687
1.1574862658215521183
1.1575666608698362836
1.1575327481021004949
1.1574432527255151815
1.1573474996238763968
1.1572643731428682301
1.1571878029626421203
1.1570974624971768208
1.1569838981854567717
1.1568604729467981684
1.1567595241681942753
1.1567197407042562052
1.1567664051480366361
1.1568970885771909796
1.1570796332221742198
1.1572683015899540848
1.1574141012580565491
1.1574808045614846108
1.1574549623704268875
1.1573451409737089968
1.1571730660920402922
1.1569661602322736105
1.1567526967581232
1.1565548883477290154
1.1563868372790861994
1.1562562656985866383
1.1561616206883325031
1.1560952492227438704
1.1560479079659260471
1.1560197570165533509
1.1560250233109226059
1.1560963579518106492
1.156278109549435662
1.1566091512243046324
1.1571032439311792483
1.1577419342216952458
1.1584746457493015903
1.1592310497932232227
1.1599519165208720395
1.1606008484369947364
1.1611701451041773758
1.1616681703174389639
1.1621061235731731109
1.1624885267495961294
1.1628122521937818146
1.1630759393504146448
1.1632883843464791873
1.1634667647592313866
1.1636286164863181014
1.163779083679909121
1.1639085441444485536
1.1639987488805876303
1.1640332646012083728
1.1640025264895088597
1.1639135206282165136
1.1637840052053054496
1.1636475743552410211
1.163536136746643912
1.163477345131006091
1.1634913369733319577
1.1635737316776200156
1.1636978700936047026
1.1638255686153373691
1.1639158096305224355
1.1639329442343395726
1.1638609608066559087
1.1637125113374340302
1.1635244752070967866
1.1633452064385734204
1.1632171119963028438
1.1631665586463340034
1.1631951180892403652
1.1632803305929513282
1.1633841054158855499
1.1634672230310976193
1.1635021864475745268
1.1634807642838225217
1.1634157861408105372
1.1633332622376153509
1.163262150296143993
1.1632222364707507367
1.1632167881217834182
1.1632339029849068091
1.1632541768808533078
1.1632616301335256814
1.1632498479802886315
1.1632211133757708321
1.1631838669554404042
1.1631451057480743927
1.1631064332242948556
1.1630671313317375581
1.1630265831975905577
1.1629860079149128005
1.1629473689164686601
1.1629114596216210131
1.1628769328289556562
1.1628425575659893099
1.1628109296904538539
1.1627907579471343791
1.1627945025074157837
1.1628320090254786745
1.162904802713698782
1.1630018112025357624
1.1630995112721416174
1.163169977197221705
1.1631913904662465331
1.1631580100650036336
1.1630824850419969607
1.1629907231590213001
1.1629138777345155997
1.1628788976320596493
1.16290210420379303
1.162986923507105308
1.1631251673690325976
1.1633004075458974746
1.1634909709238130393
1.1636736473256434898
1.1638267294158297638
1.1639319704810169309
1.1639760155658509522
1.1639517456479113733
1.1638589553035170177
1.1637049038368290077
1.1635038570685773962
1.1632761486124656436
1.1630473779499770348
1.1628455278704232789
1.162696873173352019
1.1626208022846038492
1.1626252501040961196
1.1627043618442061135
1.1628401546010722623
1.1630067097750129701
1.1631762213021614727
1.1633242336607088063
1.1634336590643583609
1.1634958198710998456
1.1635093138053960171
1.1634787768170713473
1.1634121117036917425
1.1633203671075449392
1.1632170708806928161
1.1631180374384073595
1.1630393590883052468
1.162993753586782919
1.1629867745940056789
1.1630143990171537549
1.1630635594326665938
1.1631169551398103934
1.1631583205778488477
1.1631793761999198455
1.1631814515832548107
1.163175174296720682
1.1631759451407048811
1.1631991678142252766
1.1632542084764041501
1.1633429278659943584
1.1634590379727640652
1.1635917038106979859
1.1637281272237571805
1.1638573757952499488
1.1639705923537162491
1.1640604416934596799
1.1641205168503447887
1.1641453650070989756
1.1641308115074804341
1.1640735507102950574
1.1639737566846126704
1.1638362390461172158
1.1636708972758442737
1.1634925172332790666
1.1633176725906944071
1.1631622925263083168
1.1630399735049543608
1.1629571957559394768
1.1629139443248635022
1.1629043834721706219
1.162916362059180031
1.1629360299913353849
1.1629514391692477027
1.1629560972295676091
1.1629487200939798708
1.1629335022526883225
1.1629200654860050168
1.1629175289676130234
1.1629311654685976496
1.1629625352767281043
1.1630082231403606752
1.1630610046631191246
1.1631121268081894282
1.1631523768962326315
1.163173725975358952
1.1631715581691131067
1.1631463512663242632
1.1631021629747346768
1.1630446774466218773
1.1629791727726044304
1.1629085182747829208
1.1628333239142540911
1.1627532786762988515
1.1626694698179371734
1.1625863575312089804
1.1625125751478833092
1.162459498365848054
1.1624385898827156449
1.1624569383286624813
1.162514021867528502
1.1626005569462836142
1.1627000469528665505
1.1627926823244518761
1.1628603615414661032
1.1628911772562757765
1.1628823292204299999
1.1628399090871726074
1.1627763534749990804
1.162706503856901552
1.162644025792015201
1.1625990468667981581
1.1625767567498719313
1.1625772738107302828
1.1625959930300051592
1.1626250159845143983
1.1626541403152128584
1.1626730879118998274
1.1626729898101979543
1.1626481500243639466
1.1625967207819567495
1.1625209176656656762
1.162426820809946193
1.162323626720997316
1.1622230577764147696
1.1621378277874396812
1.1620794855161353798
1.1620561253523560286
1.1620710898083417284
1.1621224584050611206
1.1622034133468235328
1.1623035846965557027
1.1624114062079531351
1.1625162473102936822
1.1626105744530108588
1.1626911775269890281
1.162758823742473524
1.1628168275590982095
1.1628689415571162868
1.1629179779240803594
1.1629644795972542415
1.1699893064657027608
1.1686700063974968522
1.1675107589640087991
1.1683765212695118585
1.1690620315539528296
1.1685900090086116521
1.1678765297124023004
1.1680753363555183011
1.1684540060378809656
1.167971751089724064
1.1676148050901524744
1.1678569836366903267
1.1680778113820400321
1.1680734474921337096
1.1679578448174863237
1.1675520404404742258
1.1669784582887925417
1.1668406463915066418
1.1673386723196201853
1.1677799178516969913
1.16762149400552806
1.1670014557822858681
1.1664235885641771606
1.166204341308517467
1.1661099588436596441
1.1659571772561936331
1.1659951914622956881
1.1664105838050213837
1.1667412205427334371
1.1666261755271793987
1.1663362653877065167
1.1662128846006503124
1.1661710968845684366
1.1658945202355577297
1.165473236697043502
1.1653152078746076281
1.165409612131608208
1.1653923064383928665
1.1652156938686037968
1.1651181061993418631
1.1651002773997776174
1.164961920764584935
1.1647385618012586761
1.1646694109629975866
1.1648096167224333275
1.1648889966373627836
1.1646507928183613689
1.1642052941113498754
1.1639308772189176366
1.1640690074086503802
1.1644599336483663077
1.1647431786493254169
1.1647907824893788398
1.1647620327175705057
1.1647611262900980922
1.1646216531529169913
1.1641596784724606017
1.1635219637128300096
1.1631689380094722974
1.1633381415554959748
1.1638710518654717951
1.1643557897074516827
1.1645352229383971743
1.1644884650870983567
1.1643779532477271932
1.1643440452346498493
1.1644172506545631407
1.1645721147064154177
1.1647721903320380488
1.1650182254826695338
1.1652938732858368898
1.165529189644296526
1.1656618162121157312
1.1657142134538442946
1.1657142450051016791
1.1656677757424505071
1.1655573382418427109
1.1654146732921069063
1.1652839773884877683
1.1651928183856854471
1.1651556634121620348
1.1651405443281590557
1.1651012410621313098
1.1649572284033973268
1.1646217861645034031
1.1641367601819396782
1.1637145044103047731
1.163623154525603054
1.1639386524352297592
1.1644649546002037166
1.1648966893602727968
1.1650588236922627683
1.1649794461906861631
1.1647927790021819217
1.1646087650581042894
1.1644805064906358361
1.1644242385883469826
1.1644029428596689435
1.1643393575693019582
1.1641600227633264186
1.1638379707279029596
1.163382929448741665
1.1628447151524927694
1.1623502068615914062
1.1620883974578162245
1.1621883723075994155
1.1626429962816966501
1.1632641566267531985
1.1638106982880611628
1.1641087202252704547
1.1641476419747609494
1.1640135648449316808
1.1637849676563263301
1.1634926330156512009
1.1631483286393133891
1.1628261043932841545
1.1626355381929489585
1.1626529176349680306
1.1628450659118700905
1.1630933511880690023
1.1632836663377386088
1.1633484685601731545
1.1632402963640622318
1.1629202322875085152
1.1624077807270549734
1.1618205793337341714
1.161328336701682673
1.1610757413301013852
1.1610615343428840607
1.161163023110164394
1.1612257225434834407
1.1611796925451109974
1.1610560903693059043
1.1609455466846967386
1.160911603889699828
1.1609412562383969458
1.1609820794232872387
1.1609841376461171869
1.1609289383895697867
1.1607993171779282804
1.1605600982566102175
1.1601650053204275448
1.1596150340802766632
1.1590031481861318152
1.1584881862638540806
1.1582163218385703729
1.1582489053643520993
1.1585342484282397102
1.1589355626197219706
1.1592968054907910602
1.159494578039998558
1.1594713562544320951
1.1592697879873534728
1.1590140846434384692
1.1588477071496865456
1.1588582663759476876
1.159026623195583916
1.1592494148215197747
1.1593981352985751609
1.1593940127343342894
1.1592426615447466443
1.1590085494621333861
1.1587732449045489158
1.158593185141799875
1.1584923435770810851
1.1584686629839417993
1.1585050811812713789
1.1585701635880614191
1.1586180263884566788
1.1586009546630933187
1.1584947452674356771
1.1583171877349853762
1.1581358593753554587
1.1580430393871403716
1.158109765440367811
1.1583454342943242388
1.158677140156567642
1.1589816877298269038
1.1591446439938450919
1.1591086477388283793
1.1588866566546178749
1.158544034348711449
1.1581612911625434048
1.1578083982647850991
1.1575326924145001861
1.1573531863635004857
1.1572689821355082174
1.1572648032522074857
1.1573226894679100596
1.1556955532610002635
1.1553857355650583028
1.1552607847422116105
1.1553570847329059923
1.1556618630413799664
1.156102519234392112
1.1565743247835920116
1.1569691293867596649
1.1572121117044977812
1.1572848280332954651
1.1572279842607633427
1.1571102000941941856
1.1569983787753017612
1.1569227425640560281
1.1568745359323611144
1.1568246844602778634
1.1567524132962829775
1.156666539624627843
1.1566015239851565877
1.1566013198555218366
1.1566906605254712037
1.1568612237359572337
1.1570723467188843703
1.1572683952766560367
1.1573962011185112697
1.1574223208845373367
1.1573398887506709531
1.1571683072730862829
1.1569425386484923912
1.1566973945652772038
1.1564613049450245263
1.1562518841422912974
1.1560743670406106176
1.1559295850860782373
1.1558147476245419494
1.1557294989361408533
1.1556732067686699139
1.1556553618688787388
1.1556977098902809775
1.1558289947174134049
1.1560851106382008524
1.1564913421751568112
1.1570525885682951817
1.1577430815052003332
1.1585063841957110586
1.1592797414922169086
1.1600065543383286659
1.1606508471647021263
1.1612077702424594694
1.1616908513408101822
1.1621164401963695045
1.162493503228244629
1.1628234526438949725
1.1631087016253753852
1.1633540023495820837
1.1635663396045126117
1.1637488438499266064
1.1638985484930779446
1.1640099879117409287
1.1640747409594984774
1.1640880455299336127
1.1640566233762286164
1.1639895088668865686
1.1639013831910232089
1.1638099426387491508
1.1637298883374815883
1.1636769099565098529
1.1636632983376062889
1.1636873797916973405
1.1637348154458184712
1.163782957339382973
1.1638038132745751607
1.1637736975393531136
1.163686161831795518
1.1635583452946995919
1.1634230962497065232
1.1633186070443193305
1.1632736648379795596
1.1632966871512466778
1.1633737353359063782
1.1634697610732096518
1.1635428569177532765
1.1635619589370829186
1.1635131037186599023
1.1634036453713518799
1.1632601648552398643
1.1631200505428707093
1.1630165281882136608
1.1629690180472160854
1.1629779155293806792
1.1630234699756882844
1.1630755382761517325
1.163110286361598078
1.1631159596729436778
1.1630925354540002647
1.1630490540843565483
1.1629964324223402983
1.1629412873955136121
1.1628876201756819242
1.1628383229364496199
1.1627965239502033867
1.1627647110276475573
1.162743852923983745
1.1627310017570005041
1.1627238628226053141
1.1627239935386113334
1.1627382518948643497
1.1627748964864237369
1.1628394589096104905
1.1629287885536248037
1.1630280028046988683
1.1631135884366363697
1.1631623543439602031
1.1631622127259568789
1.1631172936658444872
1.1630465236824578668
1.1629768423164719149
1.1629337042355416543
1.1629339179131616966
1.1629828274485540796
1.1630765910362621529
1.1632064505488446393
1.1633622548222870563
1.1635329577741344576
1.1637050342021022509
1.163861180300057363
1.1639813408257173588
1.1640445748847789709
1.164033899260057181
1.1639409522484811532
1.1637705876311670306
1.163540938903683486
1.1632807006418510731
1.1630240347154421343
1.1628054861109906604
1.1626545869248336995
1.1625908194608691737
1.1626198449980575944
1.162732521432456867
1.1629067114560942553
1.1631119226625810104
1.1633167267788191435
1.1634943808282398603
1.1636262165071571406
1.1637030190871315849
1.1637236330903026893
1.1636939525342306911
1.1636241109993719078
1.1635269747562781983
1.1634190191103868095
1.163317474499468096
1.1632381884678721917
1.1631916459016389265
1.1631798416470688906
1.1631948473608275663
1.1632219197610718098
1.1632444734729110447
1.1632503398870233102
1.1632363341882188124
1.1632094398558461279
1.1631843927345730805
1.1631778339321194871
1.1632034812878153662
1.1632669691360286723
1.163364559746568494
1.1634856888919258289
1.1636164553525674137
1.1637434226609040255
1.1638565848442359307
1.1639508097588529001
1.1640227026971954327
1.1640702759732197702
1.1640915766719444058
1.164084278879563783
1.1640465029525595142
1.1639765048983135021
1.1638748817408828273
1.1637454717001090021
1.1635970742918639864
1.163442182000891334
1.1632953621295876179
1.1631709425952125869
1.1630810137835749796
1.1630308322948870181
1.163020024644933148
1.1630406836842988039
1.1630789884036951687
1.1631192583025202758
1.1631488883128453526
1.1631625208974718522
1.1631601322018634281
1.1631483038193730639
1.1631381269898908304
1.1631385594531120642
1.1631546202672433665
1.1631856533038025248
1.163224987952705014
1.1632633427388305858
1.1632913334322150245
1.1633013165079040263
1.1632892364832030374
1.1632561226353250738
1.1632065407991039052
1.1631463652846343315
1.1630808811139827785
1.1630131381970052473
1.1629432743867669231
1.1628698621158606308
1.1627924832727221105
1.1627142244993171616
1.1626426192044594377
1.1625886392806759062
1.1625637003321840357
1.1625754783187762786
1.162624751145062918
1.1627039126288674087
1.1627982700939865079
1.1628893064050849215
1.1629598149191384682
1.1629977953036985117
1.1629992450068162846
1.1629686385625082057
1.1629171034231733373
1.1628586666229694391
1.1628067752613768793
1.1627714949717498083
1.1627585013618602083
1.162768057823306167
1.1627956621748509747
1.1628331056245175823
1.1628699091899452611
1.1628950418692463042
1.1628990487742534299
1.1628761244098395622
1.1628249874524829721
1.1627490162000353457
1.1626559371150175792
1.1625566993028235707
1.1624636973132189688
1.1623890196392465679
1.1623430775959002759
1.1623327406976367016
1.1623602075485379714
1.1624225879688261376
1.1625121669216809117
1.1626180524602285349
1.1627285450287576651
1.1628335295355005652
1.1629264955350873123
1.1630053422127206719
1.1630714764943983486
1.163128620210359454
1.1631807948366124084
1.1632308038098302383
1.1632796366397031296
1.1679992201396915963
1.1659995778518970067
1.1671824743732452934
1.1675434301934946024
1.1671595412673416714
1.1668667192584936121
1.1673348882884417854
1.1677908456198489162
1.168036936381244173
1.1681783408585098005
1.1679766459424731906
1.1676583841888192872
1.1674401619855894197
1.1675404526499666424
1.1679774983738147043
1.1681562136469598734
1.1677857019680919493
1.1675830086697793764
1.1678013333098120619
1.1678286583208792315
1.1672398113946715892
1.1664529396493514835
1.166160114715253826
1.1663536076299345634
1.1663659566479476215
1.1658609360750231687
1.1655353058529942523
1.16585870368665101
1.166316354650317022
1.1663437574208055381
1.1661870711556443503
1.1663068963281164603
1.1666088755715162684
1.1666162848337626734
1.1662452425483096352
1.1659400304256630765
1.1658805157734835056
1.1658483190886130831
1.1657212508919827521
1.1655591927746464798
1.1653498044698544778
1.1650362767733359881
1.1647471815160828079
1.1646638297063867107
1.1648308490271073179
1.1650049125177801557
1.1648864668593768013
1.1644653486637126516
1.1640765330968709801
1.1640748633886091046
1.1644295483118354273
1.1647673919883743121
1.1648722453846056535
1.1648560971121346697
1.1648399541248668498
1.1646855695946867204
1.1642645993850913033
1.1637854078097893407
1.1636102214091543772
1.1638038458722415047
1.1640880746091877285
1.1641877675323073493
1.1641095190789345626
1.1640344335293495437
1.1640824238120406342
1.1642471613194644853
1.1645030395254931666
1.1648062175981706012
1.165087759704296122
1.1653133060317122371
1.1654651893771175164
1.165518731026000232
1.1654886548367218158
1.1654463965953363314
1.1654301505346138512
1.1654157266663960346
1.1653631021554704539
1.1652950843587119856
1.165264411745788653
1.1652665757895124266
1.1652487809574947342
1.1651826718792763771
1.1650804529612830418
1.1649076401309386153
1.164596074959509675
1.1641738302527007143
1.1638566757688841857
1.1638594630182790279
1.1642114335801119207
1.1646525151893871719
1.1649160754998701961
1.1649191172125574756
1.1647488180287528525
1.1645403350853436031
1.1643976674521983039
1.1643496766366856487
1.1643826865033120033
1.1644408339303746747
1.164444560687147634
1.1643125736905743928
1.1639956590650577528
1.1634808850031463923
1.1628549448980258774
1.1623215906122714713
1.1621126309515390496
1.1623506579573394948
1.1629216222073965881
1.1635635475435297526
1.164012150978385618
1.1641547038908492961
1.1640250871546771183
1.1637175684847156365
1.1633402664002694404
1.1629733298087954196
1.1626798401842739494
1.1625217568478944941
1.1625274414773973941
1.1626650895331678282
1.1628430486921055298
1.1629861748569425561
1.163063508092468501
1.1630536069844039648
1.1629235827192687669
1.1626257133380677455
1.1621572075879558206
1.1616257438545229963
1.1611985657408412376
1.1609863645725619907
1.1609808754498120997
1.1610580799020893128
1.1611108557172100664
1.1610975459189145642
1.1610470008167883549
1.1609998226778868169
1.1609599274332178531
1.1609061249477623523
1.1608126235549471872
1.160703013237254666
1.1605888054222837091
1.1604530640644512562
1.1602354079305046142
1.1598656719797675319
1.159344509251890587
1.1587872737074520479
1.1583604548856998306
1.158192338378037034
1.158309909467790888
1.1586313223108317683
1.1590046122953474583
1.1592695214928221414
1.1593232601640595103
1.1591560953865804873
1.158860105916747596
1.1585919394059218668
1.1584878843137333959
1.1585941930828931312
1.158848097934966459
1.1591108626846744478
1.1592523917612476136
1.1592094995661441637
1.1590098923018532506
1.1587393116728097464
1.158489435119403943
1.1583168576366336122
1.1582457433886501619
1.1582672831033609118
1.1583441425068086161
1.1584328668445458277
1.1584845460936503692
1.1584657384481062969
1.1583679995588460621
1.1582212314327364755
1.1580836226844266612
1.1580251489205055648
1.1580960248072822427
1.15829668903555838
1.1585680017106023687
1.1588093534031158605
1.1589215781617205892
1.1588539525293197752
1.1586288368268296001
1.1583091228529709404
1.1579728296549036681
1.1576789046820736839
1.1574626496718884994
1.1573276045340112894
1.1572599315678882004
1.1572429857404091802
1.1572688237094921337
1.155683140417636201
1.1553322561801013801
1.1551518279060073446
1.1551947417763333004
1.1554589428076529334
1.1558837871352913851
1.1563632866501383223
1.1567785604814884159
1.1570397491359845077
1.1571126303088024034
1.1570277010811385043
1.1568643347051761339
1.1567065862965646428
1.1566055314658896247
1.1565632830341801007
1.1565506852938285398
1.1565355165238144775
1.1565126744302307582
1.1565064212560043355
1.1565538644095421095
1.1566773053956234119
1.1568675687695411103
1.1570815797970239736
1.1572616813049221296
1.157355641745561492
1.1573350606546477515
1.1572000696039597134
1.156978859895917644
1.1567159108857261174
1.156454784920345924
1.156226399261775839
1.1560430109753438987
1.1558992872320579259
1.1557794168305957072
1.1556730830181218828
1.155581899497902576
1.1555162079494807337
1.1554960755597039057
1.1555508691932248055
1.1557138585454493906
1.1560143677703054177
1.1564714654788468273
1.1570832394428003376
1.1578181177888222653
1.1586257064560048224
1.1594432221671031602
1.1602151690082722624
1.160906961095916845
1.1615074226996562334
1.1620223746881035431
1.1624622052448196907
1.1628374157491732088
1.1631584831240446842
1.1634332248519279052
1.163667875104577254
1.1638629094167161071
1.164014126970325913
1.1641194326008270643
1.1641753650937438636
1.1641859738689035453
1.1641632780759538779
1.1641220508849758897
1.1640780844438083363
1.1640396522481522013
1.1640029794359501025
1.1639652631754764389
1.1639261496718344979
1.1638893517408639422
1.1638600540835002395
1.1638399589756982522
1.1638206818385519181
1.1637849655484626687
1.163718419178236374
1.1636205151276801661
1.1635083659701184189
1.1634106533597050603
1.1633564287463731279
1.1633644800667910513
1.1634298556594409035
1.1635249435885917091
1.1636090498212814381
1.1636432634113191842
1.163604220507132192
1.1634895129808169312
1.163318165262896775
1.1631249913137111651
1.1629505906361019552
1.1628280402434054697
1.1627736154067462859
1.1627845155347498185
1.1628412949905027052
1.1629140363012255843
1.1629742011524673018
1.1630041326864517526
1.1629997397967091199
1.1629648331405162409
1.1629065571079546526
1.1628349255042667032
1.1627595289376591037
1.1626895930634673082
1.1626341091486402934
1.1625993939748415773
1.1625878912851488334
1.1625976322453446254
1.1626243564230767102
1.1626651287194891271
1.1627204735981324646
1.1627926627364244538
1.1628809326383966471
1.1629767941161763822
1.1630631547715495344
1.1631203371353115994
1.1631356248777091622
1.1631091643239237499
1.1630560343492595266
1.1629992430592828168
1.1629612961398465565
1.1629572632831843837
1.1629896719727967902
1.1630522796011020237
1.1631375709795859219
1.1632408897704320516
1.1633622660968907514
1.1635043412428514031
1.1636648979263701786
1.1638301476526429212
1.1639747491336744911
1.1640680130497886857
1.1640821235912703902
1.1640014000558429608
1.1638292367956009077
1.1635892956849263058
1.1633187507198523569
1.163058797383571763
1.1628463874612788853
1.1627093672434976046
1.1626626366029613191
1.16270762575427411
1.1628325632189580041
1.1630158698633485947
1.1632293897326184684
1.1634437788325437957
1.1636337965971721431
1.1637809707076218757
1.1638744103551046383
1.1639114619922097393
1.1638961776459242348
1.1638382948548184892
1.1637515235703035366
1.1636523177741342483
1.1635579164552196652
1.1634822810723055575
1.1634327889004740797
1.1634084632643955093
1.1634000304382914326
1.1633935504012085094
1.1633755610227738408
1.1633392202215149247
1.1632868681126489196
1.1632307164161399538
1.1631879805303040332
1.1631755855763845631
1.1632044470930820168
1.1632762268546494866
1.1633823296067642428
1.1635074773446598684
1.1636343279771201864
1.1637482811395276627
1.1638404186388275896
1.1639080400143135829
1.1639535707515635821
1.1639814186075350122
1.1639947164093293885
1.1639947417854685785
1.1639798613804430705
1.1639462547686398874
1.1638894782875999212
1.1638061499664529297
1.163697532285617342
1.1635706451158105423
1.1634386195138137765
1.1633171045955583711
1.1632222007779933204
1.1631660190408485978
1.1631532437554958914
1.1631805343971590716
1.1632355147566431075
1.1633009264515976611
1.1633579837883554209
1.1633940740792436674
1.1634055179353433029
1.1633956880063882622
1.1633745231041507928
1.1633539930074077162
1.1633437496538909794
1.1633482869082847344
1.1633646814259583913
1.1633843908382595078
1.1633978427865208083
1.1633968048335008305
1.1633763707977411439
1.1633367475163776117
1.1632825097981411844
1.1632202189739460074
1.163155816035744472
1.1630928571010334949
1.1630319606941825761
1.1629715960465587532
1.1629105347402630688
1.1628501166564295666
1.1627953311597478692
1.162753866685219295
1.1627344337585574507
1.1627435136190722442
1.1627824851367631886
1.1628461321774501425
1.1629234767328373579
1.1630001597003467584
1.1630619757100595368
1.1630986631594584235
1.1631063345938765785
1.1630880819372622081
1.1630526832061767184
1.1630120589889325622
1.1629778799586649729
1.1629588049877974676
1.1629592831287915988
1.1629792054713883331
1.1630142453851839424
1.1630564713598854354
1.1630959345324975995
1.1631223932508847341
1.1631271726290990376
1.1631048765844722581
1.1630547150826588965
1.1629812892424820081
1.1628937580827680698
1.1628043072338558606
1.1627257406100424131
1.1626692752929346231
1.1626433736393713136
1.1626526723274317465
1.1626972776218957861
1.1627726283889872061
1.1628702752093458272
1.1629796029934524881
1.1630895830585057382
1.1631910851199100954
1.1632783480683412947
1.1633495917799445696
1.1634069814859098191
1.1634553790568398224
1.1635003434365915886
1.1635462498039361723
1.1635948445537742657
1.1636453050777748608
1.168513683967742578
1.1662386633777319656
1.1652439472424527267
1.1660271338196614987
1.1671355457146301848
1.1673696819894547883
1.1676844327434077186