/*--------------------------------*- C++ -*----------------------------------*\
  =========                 |
  \\      /  F ield         | OpenFOAM: The Open Source CFD Toolbox
   \\    /   O peration     | Website:  https://openfoam.org
    \\  /    A nd           | Version:  12
     \\/     M anipulation  |
\*---------------------------------------------------------------------------*/
FoamFile
{
    format      ascii;
    class       volScalarField;
    location    "0.0089";
    object      T;
}
// * * * * * * * * * * * * * * * * * * * * * * * * * * * * * * * * * * * * * //

dimensions      [0 0 0 1 0 0 0];

internalField   nonuniform List<scalar> 
75962
(
300.09305685692396537
300.02600660261725807
300.22655341657173267
300.19101178919379436
300.15579839937936413
300.15382910661134019
300.20134562770408593
300.29205832344615601
300.25506669699319673
300.10373350516027813
300.04098392145454
300.12627849331050811
300.26154224853843289
300.33658859631032101
300.286066407464034
300.13336540249383688
300.00217970781682197
300.00997952619746911
300.167493522697157
300.38879307884968739
300.58361960902544752
300.68107530853615117
300.64467292135776688
300.52616418115019314
300.41688569979351087
300.38454434370441959
300.45565023262275872
300.62125003101459697
300.79264757903456484
300.8705293301370034
300.82690011496237048
300.70308181071141007
300.56670801892369127
300.48112016852002171
300.49635178219568843
300.61387178240471485
300.76976521921938001
300.87817455134194233
300.92104931353873098
300.93835062514415313
300.95557904280053663
300.97551395422607357
301.00609723317313637
301.06500638354748389
301.14239268582360864
301.19654088578045048
301.19879779746912618
301.16623303442418091
301.13998264677229599
301.13536221341911414
301.12501490304993013
301.08293074661611399
301.03014579901144998
301.0182117104687336
301.07278767782673867
301.16656898895740824
301.24363589607270342
301.26366080376834589
301.22836451395670565
301.17562699919017177
301.1428697419113405
301.15190758484283151
301.19852917400788783
301.26928504281585219
301.34892113561102178
301.41345155171222814
301.43482015317420064
301.39597635814845944
301.30951517734507661
301.21984602491471605
301.17792582364535292
301.20938354699450201
301.30220854676042563
301.42126511995093097
301.52636033929536552
301.58946042887220074
301.59897221458356853
301.55872856284042882
301.4857280334359757
301.40625711933370212
301.35210792622950748
301.34870827274176008
301.40020057398697872
301.48311682894365049
301.56018357058218271
301.60136645227964891
301.60030664397373812
301.57548251119061433
301.54405874745555138
301.51787442724787525
301.49630358664592222
301.47808515698932297
301.46669059216088726
301.46388682977459439
301.46539384603158851
301.46599822715882055
301.46564085993691151
301.46818210388403259
301.4779834492103987
301.50006013061005206
301.53833025737088747
301.59364757066327911
301.65663065501433948
301.71233013275900703
301.7464245595112402
301.75311687508434488
301.73497940723342481
301.69699823340579314
301.65150096957347614
301.61448317284987297
301.60297169952917784
301.62810203360362493
301.68310761859288505
301.7431617461347173
301.77754764467408677
301.77289813829924014
301.74072720978796269
301.71064090199490693
301.71050268723587351
301.75415828586926636
301.84020498296865753
301.95542751063214837
302.07616016462390007
302.17214711663706339
302.21760896801379204
302.20419003812497749
302.14684657926659384
302.07315277432456924
302.00883939800274902
301.97081790838774396
301.96154368737882123
301.97579275179947444
302.0053325991250972
302.04128305905959451
302.073456964403249
302.09107185042120136
302.08673864468607917
302.0632350880621857
302.03697457300285123
302.03187124705840461
302.06568304805369962
302.14037773603257619
302.24015776722154669
302.33889672788552616
302.41338156893181122
302.45228135449275442
302.4583770081388252
302.44607779621361487
302.43467535332024454
302.44131732174969329
302.47075856932724491
302.51330110439170085
302.54890712060188207
302.55652297367049641
302.52584757731784748
302.46253325217969632
302.38530436687153724
302.31908010833581102
302.28532115683384518
302.29556154766873988
302.34806771776203504
302.42666326062601456
302.50639024703673385
302.5631456552859504
302.58353997512278966
302.57095133854443247
302.54235935497723631
302.51872953882519823
302.51463405855383826
302.53137235329955956
302.55762426101665596
302.5762763375008717
302.57348384973045086
302.54567864114261511
302.4990937104134332
302.44564379203961835
302.39657174827630115
302.35836138247117333
302.33336748457236354
302.32151003093451891
302.3214640229122665
302.3314599882455127
302.34880882129010615
302.37063733533074128
302.39443828448719387
302.41856077476523978
302.44216977359559451
302.46424075532985398
302.62714095676381021
302.6850094801172304
302.70591275980916635
302.68861161090933365
302.6333722381182838
302.54268185557441484
302.42456989267896006
302.29407654471413025
302.17159456479220125
302.07867214722716653
302.03218058349227704
302.03972845561003169
302.0970297009671981
302.18952587135595422
302.29603858379618941
302.39478874283895493
302.46845364175129589
302.50693440498622522
302.50816790857646765
302.4767089367254016
302.42127985523967482
302.35256445327286201
302.28199039342780452
302.21999116850798828
302.17533610592658988
302.15478322495658858
302.16250896148113725
302.19941898796025725
302.26301194978157127
302.34779765821269848
302.4455835444745162
302.54632626965070585
302.6395171751070734
302.71481183087036015
302.76314512381895838
302.77759928078398843
302.75468659596060661
302.69474061311456126
302.60213149581079506
302.48431191758413661
302.34972455599790919
302.20546731315613442
302.05620627206110385
301.90379303207015482
301.74816440115739624
301.59012490390404082
301.43218501756246042
301.27880279807499164
301.1347899138523303
301.00380950983361572
300.88741078814507546
300.78514609708093985
300.69583705657043993
300.61885454082141678
300.55426278968229781
300.50223154798300129
300.46181552204154741
300.43065473260190856
300.40557926641901076
300.38361149446421905
300.36243753336725604
300.34133071846326857
300.3206165788171802
300.30223453913913545
300.2881021293046615
300.27985458119252371
300.2787494078638133
300.28394389094353301
300.29267606588388162
300.30132657235139959
300.30622846241283241
300.30433958296475794
300.29453899717771037
300.27848453177489318
300.26011212552504048
300.24432775567106546
300.23520433082160253
300.23498953734826955
300.24328713736389318
300.25718079489303136
300.27217565693098322
300.28377341724609551
300.28887945378858149
300.28662132419844966
300.27856982021262411
300.2678841786104158
300.25817396413231108
300.25216332901322858
300.25078099193706294
300.25318984578649406
300.2575109467128982
300.26196510496731662
300.26556880333629351
300.26812196164189572
300.27003537509159514
300.27162070683004913
300.27270789736968482
300.27298022829290858
300.27224641294640151
300.27060392758414764
300.26831219672749285
300.26556301861984366
300.26235567914898184
300.25871248472788011
300.25507438165851681
300.25255797540643243
300.25272730360921969
300.25692304403457911
300.26563929987275969
300.27803769632174635
300.29190244714322944
300.30442797964883539
300.31329961283853436
300.31775242061138442
300.31886312909671233
300.31906305328413964
300.32133627358274452
300.3282561228863301
300.34131484041097337
300.3606780415378239
300.38531458870892266
300.41335236302865042
300.44239915701604104
300.46993530658460259
300.49364281155578738
300.51161253181271604
300.52248058806134168
300.52555141128107152
300.52084919748222092
300.50916684661177669
300.49201744173046791
300.47153581963010538
300.45040778797203984
300.43158538186293072
300.41786434041119946
300.41134592286778116
300.41294821420478911
300.42214921040732634
300.43714574349326085
300.45528288562474017
300.4736793808634161
300.4897863206295483
300.50181309082398684
300.5088471944407047
300.51073523211647398
300.5079627318865505
300.50135028013806959
300.49203934613984757
300.48143079281413748
300.47116859058633054
300.4629505417184987
300.4581448215157593
300.45739193353603014
300.46033167070334002
300.46563732180061379
300.47149998122705483
300.47617451399469246
300.47871449169190328
300.47917686206932331
300.47860484372472456
300.47857544186513223
300.48071647906209591
300.48606454274164435
300.49488729224401595
300.50659905628799606
300.5201226837231161
300.53414998775502909
300.54754091410734418
300.5593602398714097
300.56881325060834342
300.5752019219075919
300.57792281007453994
300.57651802756959114
300.57062796872276067
300.56025089930074046
300.54587989593096609
300.52854134949558329
300.50977721530972531
300.49132683969685331
300.47487056668438754
300.46185911179998129
300.45301468349890683
300.44836629869735134
300.44733595775090862
300.44866392660213705
300.45088934349854526
300.45273039949302074
300.45346857980069899
300.4529442004552493
300.45156309884367829
300.45031060301636217
300.45015042111953107
300.45164550097211986
300.45497048856083211
300.45977802288336989
300.46530899311500207
300.47064091912477579
300.47480962740479526
300.47697324327168644
300.4766497075878533
300.473906592810863
300.46919777331549994
300.46314247131545017
300.45629900850502736
300.44895737672760561
300.44115767827884156
300.43283769700792618
300.424076478569134
300.41531252787359563
300.40744320474408369
300.40167579890282923
300.39924104628897794
300.40091548234914853
300.40667350679171932
300.41555980304480045
300.42585026767773115
300.43545602664289618
300.44246126043890399
300.44559780044420449
300.44456313513063606
300.44000388423665981
300.43324299848291048
300.42586262326528868
300.41932791180744289
300.41471676605749508
300.41258520633903117
300.41294226183032379
300.41528344541865181
300.41874602275851203
300.42222458520387818
300.42460790538859783
300.42493753703155335
300.42258793384070259
300.41734152172375616
300.40941012775147101
300.39942034379265579
300.38833602504359988
300.37739750687404694
300.36796032149686653
300.36126873463877018
300.35821614821884395
300.35920522968837076
300.36408805481289619
300.3721987612412363
300.38248334940357154
300.39374030571809726
300.4048400552297835
300.41495654407771099
300.42370279377024644
300.43111641901163011
300.4375061454624074
300.44325293572637747
300.44863427369750752
300.45372566226791378
300.15146716451283737
299.95930475877128174
300.00692586431267728
300.15993437022484613
300.18404746338012501
300.14440772846262462
300.17266138898162353
300.28225197725447515
300.31355736121952305
300.18582935929458699
300.09892335755387194
300.16217859133553247
300.27998204067370125
300.35347439400419489
300.34364881105733502
300.2396378982978149
300.10907819108115291
300.08246628717165549
300.22082393039534054
300.43758957240510199
300.60978140831809924
300.67062075549569045
300.62246220577162603
300.5125917650136671
300.39055507810309109
300.32669990638135005
300.39602400057458453
300.59417514333779309
300.79065721749242357
300.86108273677876923
300.80192519637540727
300.68878913015657872
300.59131650324530938
300.54055027056512017
300.56229722428344076
300.67110246987419941
300.81859831575485487
300.92556190861841969
300.96907338588715675
300.98243462551067751
300.98900720630933847
300.99073118794677839
301.00272912761113275
301.04822050456647275
301.12250012583751868
301.18584931185915821
301.20420236547255399
301.18570496896518307
301.16582634611563662
301.16271713812432154
301.15456408631115437
301.11107569445437093
301.04546979568260667
301.01274691500378822
301.05229677132791721
301.14302440034907704
301.22463751192344716
301.25416404299852502
301.23714494470436875
301.19635275255245688
301.15455283603205316
301.1280740069660169
301.13640286169567162
301.19735344781838648
301.29620514191157099
301.39305249789003938
301.4427979943303626
301.42432002859521845
301.35204114774825257
301.26988006669159859
301.22391466322250153
301.237055464075695
301.30454051190412201
301.40532812649934158
301.50711864138293095
301.57803829843970789
301.59683860088404117
301.56392585034109288
301.49661201952949341
301.4211441146324546
301.36680120010140627
301.3540166917246097
301.38914848352823128
301.45719886855152936
301.52536116036947078
301.56567926910719279
301.57228194656124742
301.56131610359784645
301.54822177453530685
301.53542699644367531
301.51791575456473993
301.49746633513257166
301.48331793863798111
301.48216732319281164
301.49034381506623959
301.49886087722478578
301.5026996850056662
301.50223388485039777
301.50246776557753492
301.51170659966675203
301.53839584060648349
301.58353924989376083
301.63785952016900183
301.68893053180767083
301.728442363726856
301.7505142594601466
301.75200635528580051
301.72919311297192735
301.6866663798188597
301.6396356985248417
301.61224145825292453
301.62183944227689381
301.66544189141086463
301.72022859414767026
301.75708507395131619
301.76139115479702468
301.73930818236021878
301.71279821805052279
301.70615012209214001
301.73695622229507762
301.81292395692446462
301.92755991220110445
302.05592778108973562
302.1605321851853887
302.20969784676691461
302.19435669183241089
302.130772411225621
302.05161907993414161
301.98547079652814773
301.94873772572617554
301.94477348722301713
301.97027089579017911
302.01677192229902857
302.07136856868737596
302.11622663188308024
302.13260936944237756
302.11203974481969681
302.06324797540446525
302.01211252470125146
301.98903844805204244
302.0146777999325991
302.08946017635264525
302.19517231993688711
302.30466746218871776
302.39262882739257066
302.44361801171788784
302.45648048403148778
302.44342349007780513
302.42485955755557825
302.42109998515820735
302.44212497166518006
302.48137940389142386
302.52047680344514902
302.53867586497369757
302.52275322021040438
302.47283112107282932
302.4018935220431672
302.33201997387425308
302.28671461565289746
302.28307851833540099
302.32503725869770506
302.39956462300858675
302.4811795912178809
302.54195422266246851
302.56434073581283428
302.54881665891792863
302.51261319865068344
302.47991190937551664
302.46928944359052593
302.48531414002837892
302.51790981192783647
302.54855741019878224
302.56046162283530521
302.54615689396285916
302.50927030071585477
302.46094955566854878
302.41294509793095813
302.37353835291088444
302.34672840567628782
302.33332858474443583
302.3319942951967505
302.34016816501815583
302.35429807392989687
302.37098568756232453
302.38814688991408275
302.40480340068160103
302.420947980815356
302.43635408468475134
302.45027433057890676
302.49140707336317746
302.5699515675274256
302.62618867779320908
302.65641550308799879
302.65684298613842884
302.62287207617606555
302.55269198577212819
302.45037566990015421
302.32825693260571143
302.2061938945803945
302.10765618042398728
302.05258380954398945
302.05177407481170349
302.1027937137967001
302.19104097848611445
302.29450796644806587
302.39031920980903578
302.46076497073659084
302.49605547286597584
302.49479588639638905
302.4616531768761547
302.40504424440337061
302.33523775443893555
302.26340566330515003
302.20033064861883076
302.15561368308294732
302.13667677488467689
302.1481400799699486
302.1911393910154402
302.26269578628694035
302.35636268935616044
302.4629920526948581
302.57159163225486509
302.67101066894497308
302.75065702400382861
302.80174104169918792
302.81737534991998473
302.79400588526516458
302.73194527104334384
302.63492519458594643
302.51010275758454782
302.36598901373707804
302.2108305257464167
302.05081888729341699
301.88921954452882801
301.72809233698086473
301.56894175301715677
301.41378307036734441
301.26611195170204383
301.12966422604904437
301.00701216620842615
300.89879202088326338
300.8040227672616993
300.72136614472475458
300.64959563168747536
300.58781281876372304
300.53498976248556573
300.48974896907054699
300.45074071752520695
300.41650123009009121
300.38603944396942325
300.35944255032467254
300.33692238610882441
300.31895367876279579
300.30609444147432896
300.29834683423160868
300.29570510657157456
300.29793257978570864
300.30358346031437122
300.31025531861121181
300.31514122914734344
300.31532092333878836
300.30867584607989329
300.29510120042550625
300.27707828307092086
300.25873320503239938
300.24464340828762943
300.23823336174007181
300.24057269698977279
300.25016955747196334
300.26310064032821856
300.27452229640113046
300.28063279943950192
300.27943546625175486
300.27127107120952587
300.25867836695846336
300.24556290134898973
300.23563249465223635
300.23130923860094299
300.23310024391849993
300.23935161328859067
300.24715594694993115
300.2540619758491971
300.25871202840812657
300.260848345293482
300.26108646536084734
300.26024979520173019
300.25874349506977978
300.25675123797299193
300.25442120729803719
300.25200599812268365
300.24977100289459031
300.24790151089905521
300.24623161246751124
300.24469810048816498
300.24369096791531319
300.2442063511795709
300.24744070963004106
300.25433051269243379
300.2649072538598034
300.27791617545318559
300.29109376619919658
300.3020554489930305
300.30943375099104742
300.31344606104670447
300.31578816427810352
300.31897832618670918
300.3253972909696472
300.33654838223475281
300.35276226911503272
300.37342978830878337
300.39745059050488862
300.42360813911147943
300.45064463655927511
300.47709354048981822
300.50114310235113635
300.52072471847219504
300.53369458134949355
300.53831049422319666
300.5337054916726629
300.52036935328328582
300.50017816513627622
300.47612973760175237
300.45182110819774834
300.43092555908816621
300.41662586533129797
300.41107120729031976
300.41497286494512764
300.42747738233526889
300.44634034297064318
300.46840698158746363
300.49039397178495392
300.50948845004506893
300.52371643728002937
300.53210365720133268
300.53453699069535787
300.53164290986580909
300.52449080384661784
300.51442361968548767
300.50314862397038951
300.4924595923406514
300.48401577360419878
300.47894613246717199
300.47751783860070418
300.47896266499827789
300.48178683804297862
300.48426545270507404
300.48510401980121287
300.48391126132690943
300.48135226629386807
300.47890704358968605
300.47828574871414276
300.48091814757333395
300.48742631864939767
300.49745307638585246
300.50993019504284121
300.52342269083555948
300.53653125630683007
300.54820188303511941
300.55789473649571164
300.56525562634232074
300.57007886902556493
300.57216812101086134
300.57129408088195532
300.56727636558701988
300.55993855544159032
300.54933358884011341
300.53583538624877747
300.52033026242389724
300.50409027032759468
300.48862101323669549
300.47541946912377853
300.46578799919785752
300.4603299269828085
300.45905766203929943
300.46119668268983105
300.46531861345414427
300.46977234991601335
300.47319197722185891
300.47496647025690208
300.47505412740486008
300.47409908000844325
300.47324310615982768
300.47342608394382069
300.47518176971061621
300.47846257860936703
300.48258211595015155
300.48656107174230101
300.48941064691285874
300.49033179252421633
300.48890362036843271
300.48524646787308257
300.47986282506036559
300.47339783816863701
300.46643036176845953
300.45928978764447947
300.45198209734274997
300.44433238641204298
300.43626399416621098
300.42806718121886433
300.42050617135964785
300.41472044403235486
300.41191331196040437
300.41291056503121126
300.41782019851740415
300.42587092952720695
300.43554472870459904
300.44491601649423274
300.45218881168642611
300.45610806862265463
300.4562537259305941
300.45309571255432957
300.44780154821177121
300.44184146664628088
300.43662735366837069
300.43319650554929012
300.43212783793097742
300.43343289889770631
300.43662219726218154
300.44081827487900682
300.4449097736722365
300.44773250065702541
300.44829122571445623
300.44597401608427845
300.44064226521703631
300.43264024554179059
300.42276259194261456
300.41214449080177928
300.40208504307446447
300.39386535819551227
300.3886060124323194
300.38706869924783405
300.38953136527140941
300.39573923915787645
300.40492067945081089
300.41595124276688011
300.42759938489109572
300.43877493308974636
300.44875056761111409
300.45725512785435285
300.46440037322753369
300.47055098780680282
300.47613487155888379
300.48144543770865766
300.48661872850999544
299.99648506128193048
299.70412668129284839
299.99580798660781511
300.08048334316708861
299.98858750086515101
299.97657819560799908
300.1267391456000837
300.2484552014966539
300.25103628894095209
300.19580314598607629
300.14621329397550653
300.16154564039811703
300.22787529466484102
300.30339533994668955
300.35003334172307632
300.31157491135513737
300.20168361913027866
300.16074475057934023
300.2653505716312452
300.44506599467354135
300.58488444689129437
300.6331963360626105
300.60402307236529396
300.51498052990217502
300.38329680707977332
300.27570280668271607
300.31815689838401795
300.5300173029600046
300.7620368554088941
300.85723943673247049
300.80662008769098748
300.7039885924924647
300.6276744272720407
300.6001603465369385
300.63145866270406259
300.73484600737873507
300.87345671433456573
300.97844836431778504
301.02076248791041735
301.02119695161394475
301.00721727401645467
300.99667276553913098
301.01052787186307569
301.05941987812047955
301.13349543582125989
301.19731880582526173
301.21796686285773603
301.19605462014897057
301.16314388768267918
301.14654016792627544
301.13559355694934538
301.09926637807910765
301.0445755633327849
301.0245275145560413
301.07955170375464604
301.18537174166323211
301.27882786109216795
301.31769756644462177
301.29996744934203434
301.23962633052707361
301.15790426762919196
301.0907175951596173
301.08269692585599842
301.15340414317449813
301.27426059734568753
301.3857840822719254
301.44015009020984053
301.42276874027783151
301.3529294195261059
301.2745626710373017
301.23182218513130692
301.24693666647880264
301.31686842746830735
301.42038019843812435
301.52264580666991378
301.58782693978685074
301.59460376817617089
301.54810278148619318
301.47363097053909087
301.40027371240881848
301.35245484735696664
301.34808701959821065
301.39319941273350878
301.47015535499434691
301.54282778556716949
301.58074774267953444
301.58221255714983045
301.56467609273863673
301.54648931274385859
301.52780653178041348
301.50760089106671558
301.49276179849397295
301.49149359684781757
301.50330720002426688
301.51954687051306792
301.52890619913370074
301.52771120562573515
301.52062430682138938
301.51800937395927349
301.53002482501256054
301.56140847397557536
301.60620567266704484
301.65383239038567353
301.69677176844959376
301.73143976291191848
301.75426344570558967
301.75518480703539126
301.72811387495585222
301.67933321503318211
301.63182495080093304
301.61155722022346026
301.62960672844400278
301.6771280529443402
301.7296489596778315
301.76216523475869735
301.76371757241230398
301.74121310557683273
301.71463337120508186
301.7075985126561477
301.74147087592069738
301.82591883154793777
301.94934194056645538
302.08009431774172526
302.17694275566424267
302.20908032034247981
302.17374964273517435
302.09500913032854896
302.00807044194044693
301.94378152119577408
301.91753340861623656
301.93372166392538247
301.9857642816588168
302.0580624257152067
302.126989904994673
302.16654492307577584
302.15975651528958679
302.10748987558520184
302.03459606346871169
301.9767451889658787
301.9663057672295281
302.01677387283399412
302.11608105889695253
302.23469591987537797
302.34108918956110301
302.41203346441659505
302.43886638337971817
302.42855045417599058
302.40001957916388164
302.37651127548792829
302.37608958996651154
302.40418520223425958
302.45068763823763902
302.49519257158317487
302.51729546901799495
302.50484167823594817
302.45877491109558832
302.39302681906383441
302.32904138596256871
302.28977343112683229
302.2908012493608112
302.33404500188589736
302.40529313565554048
302.47909031963718007
302.5292515044863535
302.54174676918637488
302.51985559586927366
302.48075923920083596
302.4475130463300161
302.43714107667869939
302.45420157718331211
302.48935548205656687
302.52529501353023988
302.54479291153455733
302.53870285699116494
302.5089004087328135
302.46542210339214307
302.4205309794117511
302.38331569750607741
302.35763533792629687
302.34349274405695951
302.33979270960173835
302.34383204657910937
302.35273269452846989
302.36355075817641591
302.37479053894065828
302.38551078182780429
302.39546791655897096
302.40464730822321826
302.41309650911665585
302.42707579154813402
302.49590216770565121
302.54877449594806649
302.58172569169454391
302.59037980791816835
302.57006258670185161
302.51763878164803145
302.43470514888451817
302.33057734261831229
302.22210217062911397
302.13066723891404308
302.07661877294464148
302.07195649157404205
302.11591814652348376
302.19487042477544492
302.28744304657084285
302.37138942082043513
302.43030661013040117
302.45642825462203973
302.45007262621498967
302.41682656086675252
302.36485083944484131
302.30286363596383126
302.24002168952057445
302.18559789760763579
302.14852892095927928
302.13602028523007448
302.15262959257523789
302.19937137694108742
302.27311172785056215
302.36700889667440606
302.47148956295370681
302.57550135295173277
302.66790270278897879
302.73940990616438285
302.78321149265133272
302.79457306200180255
302.77094648638268382
302.7121603903898972
302.62030297255745381
302.49944826008152177
302.35548228388796588
302.1950965301806491
302.02441392359969541
301.84918505774163577
301.67408721154760087
301.50340610693388044
301.34138451705211992
301.19194614173329683
301.05806827661228908
300.94090087492440944
300.83998697059149663
300.75399155416505437
300.68103031483082077
300.6192279456279266
300.56651635320741889
300.52081018079593377
300.48068221489990037
300.44487602466836051
300.41307971178224534
300.38582404472322196
300.3638435079637361
300.34777717654503704
300.33734956044236242
300.33083681135747156
300.3265483560105622
300.3231440249076627
300.31993748170759773
300.31675488839073296
300.31346531623904639
300.30927565410240732
300.30273426199460118
300.29281115379228595
300.27995398959222939
300.26637776054718643
300.25539224672633054
300.25014962300832622
300.252575127311502
300.26197061915104314
300.27511549328056617
300.2873340661471957
300.29411368285695971
300.29264242423164433
300.28244875452060114
300.26547754053376593
300.24551543828829381
300.22712135503212494
300.2141736934249252
300.20881350660346243
300.21110988082301674
300.21926457689454537
300.23020070444403018
300.24080034010347617
300.24891497396555451
300.2537487136665959
300.25532023147019345
300.25401665367758142
300.25058756143624805
300.24583337454464527
300.24061113863609762
300.23585560273880901
300.23232804692980835
300.23046981188673499
300.23033117189294217
300.23176866667995455
300.23480229155643428
300.23983847213781928
300.24747616851129806
300.25798452215730094
300.27077436919591946
300.28425695339808499
300.2964254353998399
300.3058565823393451
300.31234159708998277
300.31714307170597067
300.3223276071828991
300.32991043457025171
300.34116587528944819
300.35609445231182235
300.37380634098474275
300.39331638816878467
300.41398840639368473
300.43572930454291736
300.45878170051042844
300.48294998568610481
300.50687147566361546
300.5279751710110645
300.54311396177035931
300.54940114656136529
300.5451802542055475
300.53075617325953317
300.50857229481437116
300.48253071878991705
300.45701362272734514
300.43599681096708309
300.42252387640877487
300.41828057240644512
300.42352491944211579
300.43709531819729364
300.45677105550959141
300.47961477070583669
300.50254076905071088
300.52288488662929922
300.53869788470893809
300.54883512152611047
300.55302739417732028
300.5517029039094723
300.54587915120464459
300.53697845798137678
300.52669032537949079
300.5167979234479958
300.50876603576205071
300.50339972213004103
300.50065941155111204
300.49964912243706294
300.49896990967528154
300.49723660429526717
300.49371667949009179
300.48860167609154814
300.48309931608218903
300.47894672536085636
300.47787042011060521
300.4809960602327692
300.48850795456309015
300.49953300026652414
300.51249815799752696
300.52560321445378122
300.53732048623226092
300.54671317307895606
300.55349186187385158
300.55791993342648993
300.56048508552203202
300.56155034289270134
300.56129724734154252
300.55959361107500172
300.55606784951265809
300.55024766475554543
300.54174215354009903
300.53060863412042636
300.517506378847429
300.50374458988363813
300.49093908295895972
300.48078656918818297
300.47462420437176434
300.47302422580094117
300.47572705003818783
300.48149972468746682
300.48855373041101302
300.49489703758331416
300.4991351493281968
300.50081199708228041
300.50021601388118597
300.49833440022842979
300.49639725865233686
300.49540985562583728
300.49585841373493622
300.49746298941533951
300.49934472317022482
300.50050889168136337
300.50010406442373778
300.49763064209412278
300.49312842384773603
300.48710726948019101
300.48029032298171614
300.47333196634366459
300.46662890567563409
300.46025088936033853
300.45401880845145115
300.44776179695583096
300.44157035771229403
300.43592153250551746
300.43158667871097123
300.42946351009055661
300.43023682134759156
300.43407394085500073
300.4404642141654449
300.44829953393360711
300.45611662610303938
300.46246201844530788
300.46628457463026507
300.46718579895212997
300.46547886147686768
300.46206297299625021
300.45815440818677189
300.45493890139999849
300.45329266126270795
300.45364453143173478
300.45595886153790843
300.45977481803600995
300.46426749367333287
300.46841125753536517
300.471154862159608
300.47161078074805118
300.46923028873140993
300.46393487197218519
300.45619822428437828
300.44696386294435797
300.43748851636826203
300.42910094991418646
300.42297635695848612
300.42001843239967229
300.42074460228758426
300.42520440302695306
300.43295707380343629
300.44314147203215271
300.45464937890528745
300.46630736830348951
300.47712127677641547
300.48644442725895942
300.49404276765852728
300.5001140536925277
300.50515334516018129
300.50976282044200616
300.51442232317543812
300.51936628655903405
300.52452568720593717
299.99032290658317379
299.74291820575746215
299.77469910798060937
299.87271718039869484
299.93909049385746357
299.9973545265759185
300.14285157575608309
300.30990859525604719
300.38255894886526676