/*--------------------------------*- C++ -*----------------------------------*\
  =========                 |
  \\      /  F ield         | OpenFOAM: The Open Source CFD Toolbox
   \\    /   O peration     | Website:  https://openfoam.org
    \\  /    A nd           | Version:  12
     \\/     M anipulation  |
\*---------------------------------------------------------------------------*/
FoamFile
{
    format      ascii;
    class       volScalarField;
    location    "0.00519";
    object      alphat;
}
// * * * * * * * * * * * * * * * * * * * * * * * * * * * * * * * * * * * * * //

dimensions      [1 -1 -1 0 0 0 0];

internalField   nonuniform List<scalar> 
75962
(
5.8220972039171876438e-07
6.8798271206823346824e-07
8.462013520211781277e-07
9.9858060319712754516e-07
1.067756196564005668e-06
1.0900259692553025225e-06
1.1251338829535036294e-06
1.222610785248450648e-06
1.3873851041089024028e-06
1.4932012167161908356e-06
1.5537795210396049216e-06
1.6341802725408192806e-06
1.7540451964895821887e-06
1.8810013836891626383e-06
1.9913513399565474128e-06
2.0822988449880186101e-06
2.1690293280193377475e-06
2.2756061885129922388e-06
2.403746709651427934e-06
2.5205136495019865696e-06
2.5918862015747719282e-06
2.6309732240490653915e-06
2.685516939701368363e-06
2.7773687089056872981e-06
2.8910624771712949309e-06
2.9944108679972167651e-06
3.0629588980691233134e-06
3.1007945418062330869e-06
3.1427012008367466942e-06
3.2320876037950725242e-06
3.3878049726320947618e-06
3.5732555900273843632e-06
3.7366761744818113102e-06
3.8502306982840357416e-06
3.9248172896714570213e-06
3.9844444979282620008e-06
4.038236560976410662e-06
4.07813689074626457e-06
4.0997852904421384009e-06
4.115960233878409711e-06
4.1470352264791512351e-06
4.2262046647309998719e-06
4.3945765431465785893e-06
4.5394795529850703642e-06
4.6217508945279737515e-06
4.6600239386297652631e-06
4.713455582501844022e-06
4.8562466763603740828e-06
5.2330668644390646106e-06
5.5697273125380143466e-06
5.7325179714388382752e-06
5.7702291926334962075e-06
5.7625461677908650942e-06
5.7413912758914153577e-06
5.7223648629533036707e-06
5.7187582918030513887e-06
5.7210439455367397967e-06
5.7390701555545093563e-06
5.8242855484223915745e-06
5.9924011386325117982e-06
6.0911249736022758601e-06
6.1176270560297964845e-06
6.112104052233951538e-06
6.1051130310893896594e-06
6.1191503416562353522e-06
6.2112021749820334586e-06
6.3866003804135690008e-06
6.5258966242070581501e-06
6.6398221579121809548e-06
6.7325630421125072636e-06
6.7962496267447923244e-06
6.826346250671738665e-06
6.8399562190375610946e-06
6.866808846211285758e-06
6.9538405811538033489e-06
7.2553638729859991273e-06
7.644570499919473182e-06
7.859838564742249289e-06
7.9262793350822154836e-06
7.9211016441452702713e-06
7.895743959252863437e-06
7.8797229459265683173e-06
7.8955497444081733924e-06
8.029019394485861869e-06
8.3154355294352509111e-06
8.4969826749666176556e-06
8.5661801382845302101e-06
8.5721151640054413457e-06
8.5640565172541552102e-06
8.5643357173048939227e-06
8.5900237073811890141e-06
8.6557963387500868983e-06
8.6720300379791444116e-06
8.6552886133708403879e-06
8.5881606631814890102e-06
8.5255310334171927029e-06
8.5109623224685852224e-06
8.5235810381530597495e-06
8.6175635603077688234e-06
8.7240618626295428117e-06
8.7731576625526340143e-06
8.7891735498112730528e-06
8.7907647380721167673e-06
8.7883010111216387566e-06
8.7837313592396224502e-06
8.7739764062470527702e-06
8.7522923194600437357e-06
8.727390373636554778e-06
8.7076303439703083486e-06
8.693669700816962506e-06
8.6843923051008568034e-06
8.6800014736051259021e-06
8.6918799280559666277e-06
8.7448714770657074081e-06
8.7996375170920665854e-06
8.8390210533294606861e-06
8.8755562617739431469e-06
8.9207890424074745724e-06
8.9780678070629102655e-06
9.0418580160702825041e-06
9.1007265492246844038e-06
9.1445912582656658753e-06
9.1692022843670130725e-06
9.1784748932853024684e-06
9.182698456200395808e-06
9.1938556528631145396e-06
9.22920851416133844e-06
9.305799816807984817e-06
9.3880241626168423497e-06
9.4605499958074532974e-06
9.5163753916498583366e-06
9.5569595794219352255e-06
9.5898831022581809143e-06
9.6240440409527741865e-06
9.6644120355342176364e-06
9.71139979562700099e-06
9.760399208193408388e-06
9.8049610921649283627e-06
9.8403189952841406104e-06
9.8648116862590965961e-06
9.8806185455605813724e-06
9.8940014620139329085e-06
9.9129684840106948744e-06
9.944951308603357289e-06
9.9935844321714189083e-06
1.0057078744701338833e-05
1.0128740327320711627e-05
1.0199271301879348831e-05
1.0260710387956157428e-05
1.0308059637651971051e-05
1.0340836235413587975e-05
1.0361426243273244387e-05
1.0374405372038251737e-05
1.0385212686807684634e-05
1.0399490944470106985e-05
1.0421275020905817969e-05
1.0452201580793299583e-05
1.0491986829676390599e-05
1.0537495885662970691e-05
1.0584868393864616597e-05
1.0630269490631604271e-05
1.067035053513808434e-05
1.0703820148581732636e-05
1.0730222377514498348e-05
1.0750570506027517967e-05
1.0767091621871958371e-05
1.0782506269050268308e-05
1.0799724700617828734e-05
1.082151512870277423e-05
1.0849617180451062322e-05
1.088438301344911511e-05
1.0924708499899345919e-05
1.0969068397240468591e-05
1.101592338427602768e-05
1.1062916525576455164e-05
1.1107888917827977581e-05
1.1149119401513271556e-05
1.1184652520511102609e-05
1.1213408901482448015e-05
1.1235135804237096464e-05
1.1250234675933575132e-05
1.1259457375796863617e-05
1.126374476505349427e-05
1.126427998719364128e-05
1.1261873549900232747e-05
1.1257239865609063763e-05
1.1250905828039379938e-05
1.124340154061927074e-05
1.0692079696264783896e-05
1.0678882797697446618e-05
1.0664877652500996257e-05
1.0650187744255393689e-05
1.0635266165034735583e-05
1.0620730247195278305e-05
1.0606968920033342776e-05
1.059392066647818961e-05
1.0581187849347182587e-05
1.056847778003541189e-05
1.0555807596184682654e-05
1.0543371260851846705e-05
1.0531189418709527747e-05
1.0519096527738907082e-05
1.0506917048586076653e-05
1.0494684721548281492e-05
1.0482487813812668562e-05
1.0470371913684131383e-05
1.0458250598633018254e-05
1.044610854606583236e-05
1.0433963055690978871e-05
1.0422016427446296468e-05
1.0410430150345639195e-05
1.0399373355996507925e-05
1.0388572556662067974e-05
1.0377527965593364229e-05
1.0365459977443063544e-05
1.0352115764715910093e-05
1.0337669805738667559e-05
1.0323040056248481908e-05
1.0308938260478209362e-05
1.0296015609197996867e-05
1.0284095160663562804e-05
1.0272908395995220936e-05
1.0261683749521278227e-05
1.0250168826055369614e-05
1.0238086158436051972e-05
1.0225868664571351296e-05
1.0213668441587521018e-05
1.020190011864428238e-05
1.0190276238205826534e-05
1.0178761571107905538e-05
1.016683542814462578e-05
1.0154638670595945307e-05
1.014194139093892993e-05
1.0129249531105643365e-05
1.0116471678937469391e-05
1.0104085381884034495e-05
1.0091708152471384221e-05
1.0079516220623953887e-05
1.0066983843034244136e-05
1.0054325675064120066e-05
1.0041085740390352416e-05
1.0027621946271082857e-05
1.0013669927558764143e-05
9.9998265334897916797e-06
9.9859133613115506271e-06
9.9724753698273120443e-06
9.9592624517753993064e-06
9.9468055743379740812e-06
9.9347976902361257145e-06
9.9236374061113548763e-06
9.912832148027439131e-06
9.9027577468115161256e-06
9.8928377546582673286e-06
9.8833208596759918556e-06
9.8733594793799894215e-06
9.8630548945960508616e-06
9.8516737151672090634e-06
9.8397262690429965545e-06
9.8269400186935395599e-06
9.8141628742639479521e-06
9.8010898994510627818e-06
9.7884042586223152612e-06
9.7755542137271861288e-06
9.7630768109372268284e-06
9.7503129671578570627e-06
9.7377814909442398788e-06
9.7249019989979239233e-06
9.7123199121001501879e-06
9.6995516451935479701e-06
9.687248611102662534e-06
9.674795488446962175e-06
9.6626738681436266215e-06
9.6501648301795744331e-06
9.6377367884061608777e-06
9.6247656951622816851e-06
9.6118116459956235153e-06
9.5984542442797657921e-06
9.5854447441769488353e-06
9.5726560907142948522e-06
9.5608458758918999428e-06
9.5496241766983147587e-06
9.5392132049753924401e-06
9.528795311439841099e-06
9.5184296297692041832e-06
9.5074100929788901373e-06
9.496133051606103057e-06
9.4842285393130786763e-06
9.4723151280623845674e-06
9.46002191049029075e-06
9.4478523900201814937e-06
9.4351764122006132756e-06
9.4224020712729709607e-06
9.4089271967975033364e-06
9.3955045175001723778e-06
9.3818446788712464183e-06
9.3688880965994352721e-06
9.3562094955146603113e-06
9.3443963005264669508e-06
9.3326248441319068877e-06
9.3212444128136161904e-06
9.309522201698654733e-06
9.2980445418520061543e-06
9.286410786797897086e-06
9.2753220869765610329e-06
9.2642626439179631492e-06
9.2536435133636130211e-06
9.2427238112547617976e-06
9.231756181217936957e-06
9.2200310838224834109e-06
9.2079336399372835846e-06
9.1950497494673284012e-06
9.1819892152610562737e-06
9.1685771035201682607e-06
9.1554331025726379495e-06
9.142382705873286909e-06
9.1299150495882646907e-06
9.1176713161488047297e-06
9.1058557293772254392e-06
9.0940133218718544262e-06
9.08228180654960635e-06
9.0704391688093825478e-06
9.0586913553200423593e-06
9.0469275222685452691e-06
9.0353504951978343065e-06
9.0238427447861820454e-06
9.0126285909991605524e-06
9.0014499275237512484e-06
8.990566094934975279e-06
8.9796570354986600209e-06
8.9691527617919415916e-06
8.9587370796385499964e-06
8.9488378500319209227e-06
8.9389579535343614613e-06
8.9293874164406880466e-06
8.9194961344667740842e-06
8.9095394041531158108e-06
8.8989397295667201581e-06
8.8880493326174710129e-06
8.8765437736377217055e-06
8.8648237973053249395e-06
8.8528663777220268537e-06
8.8409691097184637203e-06
8.8292904680018338746e-06
8.8179786069850779341e-06
8.8070122666519417193e-06
8.7964065143632228535e-06
8.7857590681600358432e-06
8.7752600704928815562e-06
8.7642831866446605605e-06
8.7532692056493470028e-06
8.7416229789438136658e-06
8.7297961041490397825e-06
8.7175456062312810961e-06
8.7051831217726865028e-06
8.6928637930889982564e-06
8.6807793877294459745e-06
8.6690830058742343616e-06
8.6579220751908918675e-06
8.6471076445446743336e-06
8.6366797661933025678e-06
8.6263727329023635572e-06
8.6160643032597504612e-06
8.6057841199080095093e-06
8.5952225385005292477e-06
8.5846468872637782125e-06
8.5737139440510501881e-06
8.5627210208780299081e-06
8.551408105038735719e-06
8.5401205709514209239e-06
8.5283985438076008744e-06
8.5169474541898625587e-06
8.5050585292753025596e-06
8.4934820061826357901e-06
8.4816555386615605867e-06
8.4701443477957083104e-06
8.4585333979667740907e-06
8.447442742090086233e-06
8.4361308314956584092e-06
8.4254191466021358581e-06
8.4141652742602160122e-06
8.4034446615703453935e-06
8.3920937755114076331e-06
8.3814309053561118193e-06
8.3702516138146812187e-06
8.3600085159231380907e-06
8.3493136806605098465e-06
8.3395505631875348738e-06
8.3292261891072265812e-06
8.3197741042134231104e-06
8.309738249976919073e-06
8.3006246330324672835e-06
8.2911088976511223745e-06
8.2826206889817871956e-06
8.2735951155489646319e-06
8.2653797836122071713e-06
8.2561872894862085463e-06
8.247344688272010348e-06
8.2373073311116629905e-06
8.227590203961213775e-06
8.2166569114083712159e-06
8.2063816862808267418e-06
8.1950896635268781959e-06
8.1849338872757371524e-06
8.1741716380665169135e-06
8.16498810130707623e-06
8.1553087029742556987e-06
8.1472985712388657414e-06
8.1384750093788130019e-06
8.1309881006177218407e-06
8.1223351470819460461e-06
8.1145988564795818707e-06
8.1054612573044813536e-06
8.0969786721198088608e-06
8.0871235490752120989e-06
8.0780821984621917957e-06
8.0677982123420360791e-06
8.0585170425012069668e-06
8.0479953419391958515e-06
8.0384871391540899333e-06
8.027797543164767933e-06
8.018211302302749344e-06
8.0075645005721984664e-06
7.9981962803352590132e-06
7.9877652440659818717e-06
7.9788615370374986609e-06
7.9689868128859027337e-06
7.960743895245290955e-06
7.9515340920754185624e-06
7.9439215151095134078e-06
7.9350447611712551332e-06
7.927619152160114783e-06
7.918903982174487036e-06
7.9115758217835919228e-06
7.9029618374809232063e-06
7.8957734665192057401e-06
7.887297380814352812e-06
7.88020696059608864e-06
7.8718339247931790026e-06
7.8648810420710333691e-06
7.8565964412345506117e-06
7.8495320259355229016e-06
7.8410826946709063069e-06
5.5898669884176089933e-07
6.584755349191167249e-07
8.0791459919942643616e-07
9.8966716045551728756e-07
1.1120727156080550221e-06
1.1927443146202723314e-06
1.2779439644947516269e-06
1.3558764153221189081e-06
1.4225986653019101451e-06
1.5118368535883281573e-06
1.6383304591971925566e-06
1.7753789967851739366e-06
1.8873961445048442508e-06
1.97910860425185901e-06
2.083524435598254559e-06
2.2109314084896865662e-06
2.3386887548599381487e-06
2.4529610419583645034e-06
2.560295636948843894e-06
2.6507356242725082199e-06
2.705268534425541471e-06
2.7411344715622741299e-06
2.8027850499764413236e-06
2.9140751507197544294e-06
3.051565574404668283e-06
3.1727226051159878981e-06
3.2506185054335838341e-06
3.2874802924104390801e-06
3.3109012941024788801e-06
3.3577957181894967179e-06
3.477613675431505384e-06
3.679969512820021351e-06
3.8742514606856935083e-06
4.0238507471403176576e-06
4.1212183309574655337e-06
4.1797036681843551824e-06
4.2156444373134463122e-06
4.2382218499948006902e-06
4.2559186187924202583e-06
4.2834829790876170142e-06
4.3424640339342076791e-06
4.4826045836405316878e-06
4.6619910704075316998e-06
4.811473933819366949e-06
4.8990075605249540908e-06
4.9356649247457619537e-06
4.9754182781169619754e-06
5.079058038175269576e-06
5.3904220650506872819e-06
5.7485978407186584386e-06
5.9434749265004988822e-06
6.0032592614864138612e-06
6.0013815953388607039e-06
5.9891695357406916686e-06
5.9781373879481760716e-06
5.9772010623320317952e-06
5.980538986767407116e-06
6.0005647549973961511e-06
6.0857008631149604565e-06
6.2432222186150921608e-06
6.3445108905979691541e-06
6.3812714266268328656e-06
6.3813688936650556815e-06
6.3760847350920072933e-06
6.3819257793294283321e-06
6.4391485455776833728e-06
6.6160423636681288864e-06
6.8060458199039662819e-06
6.9675586787981449898e-06
7.0989964882007867178e-06
7.1877877606335938704e-06
7.2303895869023234149e-06
7.2469720230372534366e-06
7.2714335355837841619e-06
7.346094006251604703e-06
7.5992631803720626924e-06
7.9271700246989137701e-06
8.1154734068172461239e-06
8.1775137896730650802e-06
8.1754052215980322509e-06
8.1603153308391360106e-06
8.1555841560407871948e-06
8.2070579665718835502e-06
8.4592260709730309609e-06
8.8036553254941688965e-06
8.9952428539481239919e-06
9.0593277311112303883e-06
9.0604147471106664697e-06
9.0494391670803254151e-06
9.0504015339583162881e-06
9.0903020703316177555e-06
9.1811319153526637651e-06
9.2046995433741029798e-06
9.1875192741966200152e-06
9.1138147801463763222e-06
9.0397937960826468937e-06
9.0222531015865229016e-06
9.0359599016823329893e-06
9.1409604339392868641e-06
9.259547781651944774e-06
9.3109033059485944202e-06
9.3236290295236392964e-06
9.3225111009196111013e-06
9.318559384717040568e-06
9.3103823970471096764e-06
9.2867757956464201159e-06
9.2453899667703322621e-06
9.2133672928076248428e-06
9.1929924946725314483e-06
9.1810987382269255709e-06
9.1778016615936570407e-06
9.2004901361994796975e-06
9.228557629433607569e-06
9.2420432186420785608e-06
9.2554856249676107255e-06
9.2834491218898984436e-06
9.3332366853444669584e-06
9.4004490331112477373e-06
9.472706709581830788e-06
9.5359728514297003796e-06
9.5810322662800021854e-06
9.6059545038391596061e-06
9.6174289322443553971e-06
9.6276832798200000685e-06
9.6500247131072310953e-06
9.695161430753462066e-06
9.757415588760707758e-06
9.8273400374246288268e-06
9.8940920971264682468e-06
9.9506755736233405306e-06
9.9963441179504727781e-06
1.0035855935456043227e-05
1.0076362848505524201e-05
1.012276864078763608e-05
1.0176239826305509878e-05
1.0233730773346641125e-05
1.0288907972372129086e-05
1.0335376544975979112e-05
1.0369316967437491043e-05
1.0390106519219233607e-05
1.0401551764607940543e-05
1.0410463749508059046e-05
1.042534459345479002e-05
1.0454256724580901275e-05
1.0501675170344037787e-05
1.056723047597403191e-05
1.0644884406737023598e-05
1.0725128030410805322e-05
1.0798600280602564414e-05
1.0857402201811470536e-05
1.0897848838154024895e-05
1.0920155250312963587e-05
1.0928358745240680184e-05
1.0929177692916480625e-05
1.0931204681980793834e-05
1.0942816363229784614e-05
1.0973161876318242574e-05
1.1015591008740926432e-05
1.1064926137986406271e-05
1.1116661351739704446e-05
1.1166652626414183072e-05
1.1211282934328297957e-05
1.1248918623472838667e-05
1.1278853567711016753e-05
1.1302388259219921371e-05
1.1322128879831702314e-05
1.1341202687369282697e-05
1.1362817249604962016e-05
1.1389803031116008228e-05
1.1423650019927790398e-05
1.1463814546547819697e-05
1.1508559793118188589e-05
1.1556025359214640863e-05
1.1604892190651975971e-05
1.1653239434923810748e-05
1.169958821402073917e-05
1.1742804487867539943e-05
1.1780804144040215992e-05
1.1812254836231853705e-05
1.183641477857819137e-05
1.1853337610410851142e-05
1.1863762287284333624e-05
1.1868541363032702427e-05
1.1869001418470287145e-05
1.1865821827117932022e-05
1.1859880062803362932e-05
1.1851985091433745674e-05
1.1843035211403117254e-05
1.1833463812300691498e-05
1.1265196089010681772e-05
1.1251482831533372257e-05
1.1237529815541810375e-05
1.1222895161013863671e-05
1.1207632277705301618e-05
1.1192263213680044468e-05
1.1177383684773685419e-05
1.1163327474385051696e-05
1.1150036072530965524e-05
1.1137187268196311579e-05
1.112444755513240182e-05
1.111164393547912617e-05
1.1098745876420579925e-05
1.1085742433560069714e-05
1.1072593749410167833e-05
1.1059305005765766473e-05
1.1046016965505122399e-05
1.1032877953254263017e-05
1.1019987818950934257e-05
1.1007265399093520063e-05
1.0994642820075362693e-05
1.0982002244313209216e-05
1.0969475239966904449e-05
1.095720443480245581e-05
1.0945420768101824592e-05
1.0933846584786814657e-05
1.0921973021355807268e-05
1.09090439216823753e-05
1.0894895852971782542e-05
1.0879818867308425385e-05
1.086473717412327113e-05
1.0850369671483021497e-05
1.0837230667820840725e-05
1.0825078411832552553e-05
1.0813478931765658293e-05
1.0801640214975446983e-05
1.0789267963226324787e-05
1.0776252536702160076e-05
1.0763105950562068305e-05
1.0750153870111553138e-05
1.0737770752163492308e-05
1.0725761201520659342e-05
1.0713938233351998219e-05
1.0701762692047397794e-05
1.0689071830568869399e-05
1.0675625233071808342e-05
1.0661819338957749244e-05
1.0647862062210852724e-05
1.0634295738472495708e-05
1.0621051881467214993e-05
1.0608205802813659856e-05
1.059531508088042434e-05
1.0582342959643524781e-05
1.0568921753258362167e-05
1.0555214252715117515e-05
1.0541068685637790801e-05
1.052683150358665945e-05
1.051243491835577688e-05
1.0498281460260356764e-05
1.0484424797565719754e-05
1.0471303421795779445e-05
1.0458843885307726626e-05
1.04472063542268715e-05
1.0436115006680653155e-05
1.0425676979161965837e-05
1.0415506920026421672e-05
1.0405477019004054229e-05
1.0394967253917092003e-05
1.0383818115402467037e-05
1.0371742941150571929e-05
1.0359015612406734775e-05
1.0345708190434900768e-05
1.0332226209373442891e-05
1.0318619537775975157e-05
1.0305154855067564704e-05
1.0291716953675825622e-05
1.0278396831091806269e-05
1.0264975802526411571e-05
1.0251523212330031082e-05
1.0237923011194587599e-05
1.0224338841887742473e-05
1.0210784105576129759e-05
1.0197429378659269916e-05
1.0184226831095538824e-05
1.0171202917414477377e-05
1.015817047910848264e-05
1.0145108792274785313e-05
1.0131855806159462762e-05
1.011846623235176949e-05
1.0104905350600373295e-05
1.0091453359055021322e-05
1.0078362117337681168e-05
1.0065978164063090237e-05
1.0054317139289536238e-05
1.0043200321701606324e-05
1.0032225515311113268e-05
1.0021101294051147558e-05
1.0009619249941548803e-05
9.9977848425638241823e-06
9.9855729762651636267e-06
9.9730671108368183444e-06
9.9602339782343682562e-06
9.947103785625230262e-06
9.9335690906276611137e-06
9.9196084722167626063e-06
9.9052183972682275679e-06
9.890691984717887267e-06
9.8763313367911930991e-06
9.8625631110039115333e-06
9.8494200591693211556e-06
9.8368845215084686556e-06
9.8245734009931732285e-06
9.8122399661083179096e-06
9.7996997572925959139e-06
9.7871296862595387006e-06
9.7747405670279741857e-06
9.7627451182435856183e-06
9.7511184115617841083e-06
9.7396350182132732288e-06
9.7279998060182800378e-06
9.7158988164389955319e-06
9.7031790451404353301e-06
9.6897898800509097399e-06
9.6758879321444858526e-06
9.6616817102979642791e-06
9.6474974788929081666e-06
9.6335196319737405253e-06
9.6199958801167809549e-06
9.606933436114316449e-06
9.594348022979602616e-06
9.5819640173553889066e-06
9.569688693578095329e-06
9.557252144512275364e-06
9.5448496292237911925e-06
9.532378872846218956e-06
9.520148109452469378e-06
9.5080349976178301345e-06
9.496236131307199063e-06
9.4845493468344465216e-06
9.4730418305227566438e-06
9.4615293179038098878e-06
9.4500877194855459432e-06
9.4387303834211428106e-06
9.4275742694706520577e-06
9.4166840953147053418e-06
9.4060829798870076253e-06
9.3956781843410003768e-06
9.3853601108736741412e-06
9.3748475355752706513e-06
9.3639994587026485442e-06
9.3525593139574497676e-06
9.3407203023129570181e-06
9.3283993554574365516e-06
9.3161156804667826685e-06
9.303734156313135572e-06
9.2917879494712289217e-06
9.2800083507045925951e-06
9.2687070300143370563e-06
9.2574917381326599504e-06
9.2463331012485774869e-06
9.2349823147726792271e-06
9.2232812755508206625e-06
9.2112403397649155444e-06
9.198813174494392439e-06
9.1860235391497822757e-06
9.1731450738844580618e-06
9.160065224843384597e-06
9.1474038195712731748e-06
9.1348563512945185893e-06
9.1230167623307919578e-06
9.111492537222702176e-06
9.100578161009537201e-06
9.0898159520387136832e-06
9.0794012501966640376e-06
9.0687343321235326763e-06
9.0582450317714677875e-06
9.0471857929182918035e-06
9.0362794806559773478e-06
9.024685575188865527e-06
9.0132374136277501267e-06
9.0011440398286339878e-06
8.9893178392761501831e-06
8.976844460632622748e-06
8.9648642818626978146e-06
8.9522832553169137362e-06
8.9402540132857344146e-06
8.9278158972477002339e-06
8.9159632172636454992e-06
8.9038517240703928842e-06
8.8925104690961235805e-06
8.8806957709197956798e-06
8.869676643100349737e-06
8.8578709869638895367e-06
8.8467759264303307112e-06
8.8348550032151974419e-06
8.8238147566838680036e-06
8.812018543443356214e-06
8.8013347296420797733e-06
8.7899164889496357383e-06
8.7795998806181580436e-06
8.7684245941172944146e-06
8.7582134975240605546e-06
8.7471207234506973043e-06
8.7370827754695345525e-06
8.7263742807784070609e-06
8.7169308967973593134e-06
8.706854953294323603e-06
8.697907923107127035e-06
8.6879846087875989139e-06
8.6787529374348587559e-06
8.6682854012833024105e-06
8.6584011454670728128e-06
8.6471734409056571406e-06
8.6368070041539351514e-06
8.6251977937247052529e-06
8.6148818340645975402e-06
8.603701439493569619e-06
8.5942197824594177485e-06
8.5840320004204048255e-06
8.5755997781099630248e-06
8.5661432582243536506e-06
8.5581926727384629748e-06
8.5488700166928408475e-06
8.5406524362896912682e-06
8.5308234014201581952e-06
8.5219043332466848313e-06
8.5113541246909090745e-06
8.5017653780335603422e-06
8.4907156330467910917e-06
8.480787701404041002e-06
8.4694192457616113688e-06
8.4592684260220254761e-06
8.4477900952206334454e-06
8.4376847465813416396e-06
8.4263663639313342947e-06
8.4165892615200400351e-06
8.4056210130091881162e-06
8.3963727700213230948e-06
8.3859810742751252012e-06
8.377402701517859841e-06
8.3675353970892572694e-06
8.3593813508635283463e-06
8.349719611218005063e-06
8.3416639857186907419e-06
8.3321586820776799852e-06
8.3242672398247520929e-06
8.3150517003544307062e-06
8.3075028673600322013e-06
8.2985623221696233859e-06
8.2912274635025866933e-06
8.2824305974019811098e-06
8.2751288335273284741e-06
8.2662618678263075414e-06
8.2587361760080469785e-06
8.2495955369210641298e-06
6.5664296780416227889e-07
7.8872307912584530946e-07
9.048614797912167938e-07
1.0456425203717060829e-06
1.1339056387350617293e-06
1.2136905612748347498e-06
1.3186249225792442738e-06
1.407179323091839664e-06
1.4814571999988754445e-06
1.584257412981768475e-06
1.7279626892561400993e-06
1.8808541337848069634e-06
1.9940567189162059021e-06
2.0725918814786226899e-06
2.1687033814148351997e-06
2.3026711416329782139e-06
2.4449863277902550009e-06
2.5725103303864057673e-06
2.6902145765610869355e-06
2.7859677523442452044e-06
2.8413004453244708311e-06
2.8757450432028947489e-06
2.9374086191407079053e-06
3.0530679674627302793e-06
3.1896570886075546179e-06
3.3024721825139052969e-06
3.3704682754258669576e-06
3.4065443005271997553e-06
3.4489867723750033091e-06
3.5425933672324245152e-06
3.747593756149958424e-06
4.0014240070636908193e-06
4.2254339457683749487e-06
4.3638733568878296181e-06
4.413897417700742362e-06
4.4167323368283245119e-06
4.4129163677991708231e-06
4.4174025039152154171e-06
4.4387084220038453309e-06
4.4991724791047371719e-06
4.6314797080968795169e-06
4.779754735591635764e-06
4.9164034925138716149e-06
5.017574001375134016e-06
5.0711448715504878375e-06
5.0969474493328711641e-06
5.1402672168615521733e-06
5.260399187000060328e-06
5.5938184144162538103e-06
5.9239495276822798792e-06
6.0998866658361409988e-06
6.1539809495480964923e-06
6.1554458199251944471e-06
6.1543542499567587104e-06
6.1641048480168193186e-06
6.1998058748550181869e-06
6.2813346871500964024e-06
6.3795671115791838699e-06
6.4814886180418871704e-06
6.5664909643201585307e-06
6.6148531198154850543e-06
6.6261850190676459051e-06
6.6215624652831452768e-06
6.6189244253987545674e-06
6.6419757483956700633e-06
6.7661981340328232869e-06
7.0388404508176089693e-06
7.2598920743667241719e-06
7.4207716431355793827e-06
7.5281600585784395793e-06
7.5871947477940041e-06
7.6091368872170507087e-06
7.6223160921728025456e-06
7.6558482541025777611e-06
7.7862591541299434867e-06
8.1664997791873863623e-06
8.477292514861185045e-06
8.608258756477891877e-06
8.6259806137654814156e-06
8.6043466441122938505e-06
8.5621289513038114814e-06
8.5539152068127254216e-06
8.6039352038218580874e-06
8.8717596576953844042e-06
9.2592093489235427169e-06
9.4744727439092174477e-06
9.5459814533476114315e-06
9.5463714208933731344e-06
9.5338377899116825889e-06
9.5363045240683457854e-06
9.6012132199795820246e-06
9.7329809386692237055e-06
9.7699147995149200613e-06
9.7525242204427953566e-06
9.6661960534595253947e-06
9.5586978606150415575e-06
9.524805845796017613e-06
9.5232904094151454459e-06
9.5726959511311097739e-06
9.6715673915348376194e-06
9.7372600988621277362e-06
9.7843465105189067975e-06
9.8212915988075863124e-06
9.8469992948861109153e-06
9.8566268541723771351e-06
9.8524062177974636254e-06
9.8390188225808554207e-06
9.8007330211199799545e-06
9.7429933688541363931e-06
9.7076687649444968093e-06
9.6915315720591847863e-06
9.6854742736045350526e-06
9.692205108808419714e-06
9.7353200538406018424e-06
9.7872574512707254986e-06
9.8156209841586310394e-06
9.8291529497858527665e-06
9.8420869025962403552e-06
9.8691473287471531868e-06
9.9340397838065897592e-06
1.0018707658055939683e-05
1.0096320473940477037e-05
1.0158097873654813647e-05
1.0205926442721149425e-05
1.0247196014157808228e-05
1.0289911835889710057e-05
1.0336988797736674933e-05
1.038624002688266922e-05
1.0433479414623549449e-05
1.0476666385223602649e-05
1.0516040223672692066e-05
1.0554065635412495996e-05
1.0594648985956674046e-05
1.0640914807621153061e-05
1.0693938183295520825e-05
1.0751452570425191056e-05
1.0810078215664600175e-05
1.0866170829619976654e-05
1.0916715964653178354e-05
1.096050224786433754e-05
1.0998839140842858495e-05
1.1034268700769409924e-05
1.1071837346295704469e-05
1.1113905149866731072e-05
1.1161669924202563653e-05
1.1213291753561774178e-05
1.1264896195616443675e-05
1.1312439390893738609e-05
1.1352934777302768136e-05
1.1385651312783198522e-05
1.1411280513782850985e-05
1.1432972131191505968e-05
1.1455086237109871788e-05
1.1482499384734739308e-05
1.1519001405006452771e-05
1.1564975798556401441e-05
1.1618105518588171731e-05
1.1674521585058254312e-05
1.1730060428727190236e-05
1.178080115246818717e-05
1.182464784632333065e-05
1.1860611723148420352e-05
1.1888288134615075206e-05
1.1908984030819681952e-05
1.1924899494239261423e-05
1.1939261539101032089e-05
1.195558693789709501e-05
1.1976836010224304715e-05
1.2004335482911472838e-05
1.2038617574978270364e-05
1.2078476320393230099e-05
1.2121720888929687996e-05
1.2166001267710888184e-05
1.2210330516458164313e-05
1.2254521716233013413e-05
1.229822484773001733e-05
1.2340116011876692202e-05
1.2378980753455215346e-05
1.2413532011198300577e-05
1.2442106739812337467e-05
1.2464647064676950106e-05
1.2481333733834685441e-05
1.2492565933849659199e-05
1.2498147363097669463e-05
1.2498570157839733347e-05
1.2494870670829966205e-05
1.2487695604559378475e-05
1.247875458805209409e-05
1.2469485833893931853e-05
1.1855931603220919572e-05
1.1841039766994563477e-05
1.1826545980349338947e-05
1.1811845205345481561e-05
1.1796700730422526252e-05
1.1781374497543747401e-05
1.1766285977051579818e-05
1.1751775151627316879e-05
1.1737980265270973445e-05
1.1724835107092348126e-05
1.1712020181551097522e-05
1.169914534153355323e-05
1.1685848439634808046e-05
1.1672040673270333807e-05
1.165774199710690994e-05
1.1643227555851290002e-05
1.162871174845045804e-05
1.1614544148453497191e-05
1.160075456007921143e-05
1.1587431776408093991e-05
1.157427487018553662e-05
1.1561239988219895844e-05
1.1548119210834004348e-05
1.1535230741313970261e-05
1.1522551082819112005e-05
1.151008942045040244e-05
1.1497114279039441479e-05
1.148327227803747808e-05
1.1468257345986608434e-05
1.1452692113690028753e-05
1.1437070836909923267e-05
1.1422297462789953303e-05
1.1408471665958690671e-05
1.1395736730032315204e-05
1.1383281103609691441e-05
1.1370727605272471346e-05
1.1357382622994611235e-05
1.1343633758901491203e-05
1.1329634822688512658e-05
1.1316184654204226198e-05
1.1303217110684343397e-05
1.1290942413797026855e-05
1.1278613056227522186e-05
1.1266028120587561075e-05
1.1252400957726654338e-05
1.1238031650707187864e-05
1.1222819691900049483e-05
1.120775907041944187e-05
1.1192916820730835744e-05
1.1179006188233271213e-05
1.116544985250412676e-05
1.1152427211860967349e-05
1.113907164319103679e-05
1.1125681661580428817e-05
1.1111660043271426478e-05
1.1097592537237599292e-05
1.1082976826522616812e-05
1.1068457776189762621e-05
1.1053644465367608248e-05