/*--------------------------------*- C++ -*----------------------------------*\
  =========                 |
  \\      /  F ield         | OpenFOAM: The Open Source CFD Toolbox
   \\    /   O peration     | Website:  https://openfoam.org
    \\  /    A nd           | Version:  12
     \\/     M anipulation  |
\*---------------------------------------------------------------------------*/
FoamFile
{
    format      ascii;
    class       volScalarField;
    location    "0.00519";
    object      k_0;
}
// * * * * * * * * * * * * * * * * * * * * * * * * * * * * * * * * * * * * * //

dimensions      [0 2 -2 0 0 0 0];

internalField   nonuniform List<scalar> 
75962
(
3.7621730922419504368e-05
5.276288609104768431e-05
7.9914942310056530025e-05
0.00011145945363382297436
0.00012756629107019677206
0.00013304876565814802549
0.00014207675064036105316
0.00016827268512622340453
0.00021734940365664463129
0.00025233407443330782473
0.00027353026662484385828
0.00030288126192143903503
0.00034975550967999020349
0.00040328933773139106524
0.00045252330785562855332
0.00049491361571785878835
0.00053736770955084556256
0.00059255874649667748897
0.00066318184236987816164
0.00073131319981842410512
0.00077444677757181274239
0.00079810124839088626356
0.00083159974413597910481
0.00089004940923464634893
0.00096556356562645779228
0.0010375408630900085239
0.0010881126594426253091
0.0011181907606537468299
0.001151387411397841818
0.0012200182202222493045
0.001341996704287720622
0.0014937420910455028941
0.001633867747938580646
0.0017359972163909214316
0.0018073390334254022405
0.0018679188809352445522
0.0019240725071631734153
0.00196630171303151767
0.0019894601890217728131
0.0020061800229332288695
0.0020372539405133604888
0.0021171844033396002537
0.0022922650509313133478
0.0024505609441580378412
0.0025454966279663919504
0.0025919952122239438633
0.002654416061849464506
0.0028196342634977354658
0.0032767579585655294029
0.0037167782972887179575
0.0039458593708876924314
0.004009119833880450158
0.0040085899412934857672
0.0039858747318196902781
0.0039623190731381758081
0.0039581599558681547502
0.0039626696023156186485
0.0039921847987482456804
0.0041201346704714562549
0.0043719809613698050813
0.0045267894844013400329
0.0045731850294460606177
0.0045709818246912389123
0.0045665598050333190694
0.0045933494633656314979
0.0047384416265018099862
0.0050174405337990030107
0.0052486916101712344923
0.005443989427333768838
0.0056057939259615751845
0.0057192833070067068679
0.0057768800936278969643
0.0058074495786433651123
0.0058604411396841523535
0.0060159040410970587853
0.0065545019711564555046
0.0072834330609600622664
0.0077091088589388376967
0.0078539722483144079612
0.0078616251861348025731
0.0078314051924377320324
0.0078189398165984629052
0.0078664925379168110231
0.0081480803887158444881
0.0087535546600680143314
0.0091558481379682126605
0.0093217286912191839321
0.0093465552666475784638
0.0093336262295046230203
0.009332619199856484124
0.0093860307050204361962
0.0095325564693180056541
0.009578380180200858629
0.0095575599071782597893
0.0094282940268985131888
0.0093100061512681603348
0.0092979593578066972032
0.0093470055911365063084
0.0095763459925433998959
0.0098341237046040454184
0.0099594496726382267943
0.010004933663672907138
0.010014628693089416833
0.010015160454834214077
0.010013229437715530715
0.010003205742062334579
0.0099702560739609279172
0.0099340062102560491158
0.0099119276215740986791
0.0099029730932104608615
0.009902505795461232288
0.0099101413869631081732
0.0099518246353417477018
0.010084804915615601731
0.010219046473504720535
0.010314374239259268065
0.010400549643719442586
0.010505822481821922368
0.010638712624350244937
0.010786407828525098815
0.010922572392318120882
0.011025017771660039489
0.011085872258656044587
0.011115404523543093163
0.011137214819868840668
0.011177751106686152627
0.011277412801378257703
0.011478822744390330263
0.011696678089703571243
0.011893257302480744406
0.012049803845889106579
0.012168313324852866875
0.012266993832350477078
0.012368642506906857639
0.01248704151708578472
0.012624367412750891679
0.012768890116376871435
0.012902842535705229612
0.013012206534748126108
0.013091929364249126067
0.013148605841874688727
0.013200250897311202949
0.013268612572048837928
0.013372514851637973959
0.013520437861378130015
0.013707619335783301218
0.013917711200669296429
0.014127569285269238331
0.01431620858358249003
0.014468801715638917801
0.014582015978013189786
0.014660969390278721924
0.014718011599541105591
0.014768691618430087112
0.014829203946123876295
0.014911065197847489516
0.015019115649244598604
0.015153000771662896579
0.015304467984830415553
0.01546298490360519147
0.015617385630569517729
0.015757102872287563622
0.015877383675892631915
0.015976311348741108892
0.016057061997090556899
0.016126988801457249612
0.016194590616182127918
0.016268424803753202962
0.016356473203428964491
0.016463872987807687265
0.016591912726233511155
0.016737594248118610463
0.016896508649776213057
0.017064072260335169662
0.017232866664824039032
0.017395934357450709706
0.017547946018297202325
0.017683062905565288814
0.017798061877611879439
0.017891839025203342545
0.017964907652291774859
0.01801877959426392839
0.018055815722850619004
0.018079690393788871994
0.018093530838548532724
0.018100540494761035992
0.01810329765978256622
0.018103995790546063838
0.017335406600579059827
0.017317443267778644816
0.017298761826887627119
0.0172795090596375156
0.017259890167950372314
0.017240420956253936502
0.01722157731515067472
0.017203423570940137854
0.017185495258502235527
0.017167458549514034993
0.017149459350386173778
0.017131924841695785749
0.017114817910614480573
0.017097750275552967697
0.017080366951194685121
0.017062812647814437628
0.017045217298744044787
0.017027601632072963261
0.017009778742572152777
0.016991945142275432373
0.016974230400771294497
0.016956943671157489323
0.016939986674559450591
0.016923584483355076646
0.016907368309159905018
0.016891102985617446886
0.016873854151831135101
0.016855634759330422739
0.016836425781686325392
0.016817372147138149457
0.016798610254861259111
0.016780776361466135521
0.016763147516011430577
0.016745998165964642856
0.016728476532173072039
0.016710969899496882357
0.016692778479233009309
0.016674664739954370846
0.016656220044582611267
0.016638299126468001493
0.016620148224782541058
0.01660234018859814073
0.016583859883373266303
0.016565470348975399467
0.016546188174209865152
0.016527150085533022505
0.016507550974279125433
0.016488721723631707961
0.016469604745488898578
0.016451268102809734478
0.016432510577109184224
0.01641435387256006545
0.016395322116900860887
0.016376328207434641404
0.016356118132817686756
0.016336256763679085635
0.016315843987658000536
0.016296398928039718124
0.016276836366642889048
0.016258621815969532404
0.016240499628445856373
0.016223613639894451238
0.016206310341632890193
0.01618997784395251674
0.016173168100405997671
0.016157393624794780945
0.016140765391898865416
0.016124447497343132041
0.016106573798646474371
0.01608883629672631238
0.016069835557891102434
0.016051550290147108963
0.016032274148327672197
0.016013860674304235265
0.015994508725542529864
0.015976251587458849268
0.015957249491081078319
0.015939347240374192316
0.015920559223574690805
0.015902757273364875878
0.015884056170860062773
0.015866381782537825051
0.015847692533041683738
0.015829817352937456537
0.015810841176288191468
0.015792772884410399142
0.015773851882337305841
0.015755801507169452103
0.015736764983863737316
0.015718468422777770455
0.015699695990120287464
0.015682404287348808425
0.015665308546801232081
0.015649637191987888357
0.015633507729699243349
0.015617912376196151775
0.015601047745840078765
0.015584299317395883255
0.015566235524177549771
0.015548686998720008534
0.015530431785888273652
0.015513334144382414162
0.015495577990493844892
0.015478565749493076661
0.0154600211295339348
0.015441788702685449453
0.015422184742997507509
0.015403763253301321762
0.015384995882314142154
0.015368093603946152842
0.015350866591044070794
0.015334880577074728666
0.01531786575407426132
0.015301621889098919113
0.015284418045306428016
0.01526821227101147864
0.015251236849268386131
0.015235184313904135897
0.015218282954941198676
0.015202116571902672681
0.015184907520533981462
0.01516811505861071635
0.01515015323505814783
0.015132504466558895431
0.01511393367014262322
0.015095901283643600038
0.015077461953421992732
0.015060110377628424874
0.015042751564355218846
0.015026231242757672607
0.01500921680333303955
0.014992283480901504727
0.014974781152758555314
0.014957459434827876169
0.014940022533856147507
0.014923177133611747677
0.014906511569352669938
0.014890667217388710991
0.014874617458035959555
0.014859021890241727593
0.014842661134877001977
0.014826870215080448917
0.014810648943878660169
0.014795591148741961754
0.0147803399489129135
0.014766195226035413665
0.014751414689783932249
0.014737107606398616375
0.014721534900091017006
0.014705931824808737146
0.014689166492573563563
0.014672362204695426832
0.014655123937456947941
0.01463805471020784843
0.014621295389310897186
0.014605049956729823993
0.014589142998855568825
0.014573731182640652093
0.014557780507270532203
0.014542349405662320996
0.014525799087917765778
0.014509913405939975362
0.014492862126755214416
0.014476080511881305249
0.014458528121024298227
0.014440869750444656344
0.014423208816291265347
0.014405829341516646763
0.014389006969250483017
0.014373141018921457152
0.014357647285006491789
0.014342810929429837888
0.014327948187825149604
0.01431285792886472126
0.014297818831408175277
0.014281956778523036133
0.014266305230434088436
0.014249848503550269913
0.014233690779586808534
0.014217085208081734968
0.01420127810004122651
0.014184754065197808029
0.014169733155215948062
0.014153603686991948415
0.014138547629301884481
0.014122380174068660877
0.014106743829517020758
0.014090158998886444242
0.014074778770543661457
0.014058367450451018932
0.01404393984133128076
0.014027887915406522454
0.014013845157439369302
0.013997808525761669049
0.013983937939552057786
0.013967958769290215668
0.013954528373909445838
0.013938958059643982018
0.013925939701362641601
0.013910613005002661971
0.013897860821878417481
0.013882845700902087666
0.01387055692206738168
0.013856495724070105879
0.013845403983703692338
0.013832124986568595376
0.013821403161160908737
0.013807627729143786416
0.013795634475972897576
0.013780584603172678707
0.013767715833748769491
0.01375183620889378934
0.013738926501694124008
0.013722895437021135137
0.013710383419068482638
0.01369502621224187415
0.013683769870612120731
0.013669505098001463045
0.013659585328102302401
0.013646035142757200961
0.013636558114805888767
0.013623248689546089626
0.013613495488284027557
0.013599808577670171802
0.013589201949402798103
0.01357479873593106165
0.013563763852028795989
0.013549007427910701729
0.013537939662531365409
0.013522969370381547616
0.01351165307263625312
0.013496591283473627007
0.01348540346874864404
0.013470684861500614032
0.013460108566447423831
0.013445558518057383265
0.013435546071844488292
0.013421509618006992673
0.013412138827326534202
0.013398708937943580935
0.013389996789720188045
0.013376563382621411286
0.013367752547596993898
0.013354451900729901945
0.01334574909282069434
0.013332636793174127213
0.013324254767250066217
0.01331144150384521406
0.013303230583033389886
0.013290648237654942992
0.013282885474506778839
0.013270741993510333859
0.013262934276844500978
0.013250713749793061741
3.29632938185516516e-05
4.5893504357437937108e-05
6.9357076506834118763e-05
0.00010424526644641906193
0.00013143289325864815874
0.00015121082330524926321
0.00017389874328591409442
0.00019638317273517651097
0.00021707441701391850261
0.00024590030564381436251
0.00028903943387428707905
0.00033956178702972383268
0.00038458637927619987711
0.00042417210242272731287
0.00047077518930833625078
0.00052993677394280345669
0.00059309275036351799017
0.00065375529120684033012
0.00071423332299671096497
0.00076745628629175529582
0.00080058401051981268638
0.00082252147333650757043
0.00086032127599215300548
0.00093059292229425187234
0.00102132278911949443
0.0011054220172375785539
0.0011626216470354147972
0.0011921219334348864393
0.0012123051856536869782
0.0012495562822503448151
0.0013420363691148203163
0.0015034516804291611983
0.001666863335256712781
0.0017999338638347275789
0.0018922216792148279646
0.0019520988008621825444
0.0019916137693349726147
0.0020170968431020013141
0.0020357288079618997452
0.0020624170247511169375
0.0021197104972411552788
0.0022597555715927774601
0.0024468531321920031392
0.0026111159219291859949
0.0027133539346448280576
0.002760033631477472587
0.0028087599842906343234
0.0029291504110305157695
0.0033007882780273210301
0.0037577468079577369155
0.0040255252195994292025
0.004119283072026075701
0.004128230155340102854
0.004118456401316528126
0.0041060590349629479123
0.0041056720986259974404
0.0041120674337482392147
0.0041441932542295358693
0.0042702596792671219245
0.0045039220568985072202
0.0046606154188652756942
0.0047225503694384631664
0.0047294756902551589317
0.0047280492097346174876
0.0047426735575799780498
0.0048342966282794285621
0.0051117754296418150065
0.0054204526448601931046
0.0056921124409754671192
0.0059181982573258762673
0.0060743790540748786658
0.0061530990525494062143
0.0061882815582497453788
0.0062375132974274490744
0.006374181748688577745
0.0068301274895100280715
0.0074429489631105925918
0.0078124953970575179707
0.0079455683402390089171
0.0079562300892013076981
0.0079430837376415919932
0.0079499427418614054125
0.00806534660707499719
0.0085826291714559636153
0.0093108945056592871264
0.0097375294655229396174
0.0098938021273533433009
0.0099095748340201714882
0.0098926419625138903996
0.0098956973733421785266
0.0099825648057543219654
0.010186881525192465967
0.010250718657917545773
0.010230195735628952805
0.010086516180973389284
0.0099432195236609077077
0.0099253767259732221528
0.0099779564522645969316
0.010234287969609822885
0.010522334802030819736
0.010655165272659292142
0.010695169427141886995
0.010700408811725084512
0.010698622084591663181
0.010688778659265017051
0.010647108195318078297
0.010569818518380810421
0.010519132483604257816
0.010498368213356335313
0.010496890259082118646
0.01051193330640680032
0.010582326885890924392
0.010661539455375571711
0.010703969138096429067
0.01074309653821995704
0.010812606313546033535
0.010930330219432841943
0.011087757386657751124
0.011256767309571891547
0.011403969280818503779
0.011507562617571843316
0.011564741129487318347
0.011594228116770612103
0.011626556314986845331
0.011692543382791712944
0.011815872255449852077
0.011981731394511203892
0.01216740039346280583
0.012347003709249669903
0.012503272366008675795
0.01263353452564526351
0.012748822646905496117
0.012866847272188704568
0.013000545618058530206
0.01315401221505533777
0.013320582365702099761
0.013483886661313214742
0.013625784908424717554
0.013734100175183283632
0.013805898427176398896
0.013851605545926104143
0.013890692821258565984
0.013946586515702266013
0.014040386788329566742
0.014183686815194407674
0.014376517324988341909
0.014604919170074682697
0.01484500635377698774
0.015071127545763634073
0.015259440808500968415
0.015396986853610695675
0.015482471397082664746
0.015526623652315210342
0.015548604691286466162
0.01557335090995777202
0.015625393348637658247
0.015731717366957134047
0.015874108906559179777
0.016038100793908442038
0.016210524019087086539
0.016378776231114253875
0.01653169428199934704
0.016664048174238495909
0.016773612877702789165
0.01686443090565895031
0.01694438758553866442
0.017022573922271289765
0.017108197452112651471
0.017209685659870018609
0.017332154962294270967
0.017475337658209893349
0.017635435401544743289
0.017807504405183447599
0.017986916722812260061
0.018165939347062235593
0.018338056276712439568
0.018498749493565419533
0.01864190023893067677
0.018764439513685029354
0.018864808688184641489
0.018943027834480052202
0.019000655081281431213
0.019039786898636303775
0.0190647935401499595
0.019078639140796365553
0.019084986147578367893
0.019086727107221958255
0.019086330471676370146
0.019084353025633174483
0.018261586101697955403
0.018243416961460427045
0.018224792471589128934
0.018205353871888447365
0.018185241192698077539
0.018165046466724094065
0.018145294494234114752
0.01812618342395212051
0.018107603910229534
0.018089297765992634615
0.018071000756273655069
0.018052574214229757249
0.018034008502845880195
0.018015288450038333817
0.017996358479278593001
0.017977213622707221424
0.017958052443236845186
0.017938985090099949377
0.01792014307074107915
0.017901421830323668155
0.017882969417278415242
0.01786457785054647307
0.017846409646262710591
0.017828374661868415241
0.017810947087418406432
0.017793764428105086212
0.017776479624869022389
0.017758037194668410685
0.017738521263129154032
0.017718146144686853366
0.017698061706044147801
0.01767853699036575979
0.017660041939910595121
0.017641992431522979246
0.017624361252738515726
0.017606295819335704422
0.017587933653555688773
0.017568860077935816166
0.017549778780918689342
0.017530552936760462196
0.017511741816851205539
0.017492885644064738726
0.017474256698150517075
0.017455147856371210774
0.017435745863556711271
0.017415358117258222803
0.01739474693115633866
0.017373821908525908381
0.017353718658635625821
0.017333985559176232766
0.017315095301800847299
0.01729606707398761295
0.017277211929992826456
0.017257581374678612057
0.017237725169298598327
0.017216993736680629573
0.01719629131919348658
0.017175122202051484183
0.01715446240372068068
0.017134045419293170154
0.017114824410682016875
0.017096141823256631731
0.017078298426470031601
0.017060385875051462673
0.017043093974616802672
0.017025821661690185294
0.01700903989813890016
0.016991693261212973548
0.016974031621073307902
0.016955452775191063447
0.016936651140586556769
0.016917248802452190815
0.0168978112321152181
0.016877892037939455638
0.016858097960188351411
0.016838132210751938916
0.01681857299866193825
0.016798970413811949859
0.01677965406243367083
0.01676013583520634051
0.016740696432417989659
0.016721046537853809927
0.016701497183169371208
0.016681840431304002792
0.016662381479389049704
0.016642887093566594015
0.016623747184412680789
0.016604675034400700334
0.016585828442184639975
0.016566678431267203853
0.016547455490687996288
0.016528245327125684616
0.016509721337360873383
0.01649196749763009312
0.01647491575696955618
0.016458010982833858049
0.016440992240136547559
0.016423580521715989977
0.016405879928244677252
0.016387690291092719269
0.016369206898586077803
0.016350439454255741994
0.016331779639619400241
0.016313101746608056619
0.016294259952410655723
0.016274744179850496317
0.016254700998478453094
0.016234271006187468711
0.016214367213374943077
0.016195124945824115187
0.016176993234765027485
0.016159397397172335642
0.016142050622883041822
0.016124403058628784813
0.016106578181275095496
0.016088704610649345872
0.016071062897005421871
0.016053584858222710863
0.016036042054700508364
0.016018318278180759817
0.016000252788439622148
0.015981903029191498605
0.015963172371564748886
0.015944162227454074243
0.015924836492072689392
0.015905481733873138434
0.015886084288083045235
0.015867130713127869379
0.01584862252455989523
0.015830821479716560007
0.015813120106124973346
0.015795469552085501797
0.015777118288797208068
0.015758753052276332912
0.015740031035995822456
0.015721987013207414097
0.01570423770669213126
0.01568744049267626825
0.015670882508191236182
0.015654686719397892941
0.015638116007426101917
0.01562131499281604885
0.015604238425453931943
0.015587231769289040459
0.015570540271416110842
0.015554381013339503917
0.015538701782424465744
0.015523477600963781278
0.015508130122535483675
0.01549245511454809196
0.015475740820963991215
0.015458575579732810809
0.015440444235750565988
0.015422687160376357188
0.015404445684301127165
0.015387133908976202354
0.015369667421221975753
0.015353121542754640666
0.015336446350581501435
0.0153199197660468453
0.015303139644164040142
0.015285953182488482352
0.015268609455962733543
0.015250959316207615343
0.015232870786093326634
0.015214875920517831331
0.015196134494141160312
0.01517824656537599369
0.015159858154419524057
0.015142768779561548154
0.01512569731522956859
0.015109803880095950754
0.015093853244318259157
0.015078804076786668509
0.015062925812581602278
0.015047812628411788571
0.015031079282921513615
0.015015213355017979768
0.014997526657366304359
0.014980906322221630017
0.014962835154954069392
0.014946427945316590608
0.01492864105738571194
0.014913110239484519276
0.014895879376385421852
0.014880385440354634147
0.014863059146118273376
0.014846961316724104074
0.014829222263151945957
0.014813413398689211087
0.014795699479387577208
0.014780665822433949191
0.014763300396708964324
0.014748662341179099786
0.014731502692386289413
0.014717265904290103076
0.014700232564343732045
0.014686452159981194104
0.014669710477630097667
0.014656220353631338807
0.014639592989045557142
0.014626033912173918086
0.014609382573316231912
0.014595998163121714705
0.014579965424951260231
0.014567627735267950351
0.014552615938700027079
0.014540958361837483248
0.014525926473132675168
0.014513501753471750103
0.014497624889400350864
0.014484627332753035114
0.014468090312608868769
0.014455179947743901012
0.014438434340711183215
0.014425814308698317254
0.014409577418920221231
0.014397932183588842484
0.014382669132650571786
0.014372119591130418093
0.014357268715889531102
0.014347066739103096766
0.014332374775313556567
0.01432192207566048564
0.014306877590230419189
0.01429582612856359139
0.014280200847795109995
0.014268535103690320812
0.014252500501946071057
0.014240606206627303212
0.014224143594726460643
0.014211972620844561324
0.014195470916134529313
0.01418361729717129531
0.014167578675266455715
0.014156440593073325862
0.014140816787487336254
0.014130339328042723634
0.014115309480414764756
0.014105708981911015826
0.01409119711158259361
0.014082019447441015969
0.014067438775448616595
0.014058022796957073131
0.014043493685217914302
0.014034125609500694432
0.014019929572862521727
0.014010959452420720592
0.013996949033967752071
0.013988149839084631706
0.013974413958708166439
0.01396591539935495771
0.013952476596247674612
0.013943971785274456021
0.013930394047631031521
4.3243110122214772288e-05
6.2455635172331368373e-05
8.2603011861264651018e-05
0.0001106386230013479998
0.00012986383943629564784
0.00014863103740983622239
0.00017575128997279044043
0.00020072870360057003887
0.00022332169642565673868
0.00025625124329619827519
0.00030533516628219065656
0.00036194769008599078815
0.00040757179321593755899
0.00044166266104224703769
0.00048430495118762087242
0.0005456768756440166443
0.0006154169737827488041
0.0006829188403803556056
0.00074869575626478155218
0.00080437650252557875083
0.00083806625418002234865
0.00085969487581535159685
0.00089762018388348679444
0.00097011186370023487664
0.001059677051275110431
0.0011375162971562022968
0.0011870974013197907893
0.0012154812597105042141
0.001249012711500575119
0.0013203835393047007839
0.0014792967552063095507
0.0016871830319382709069
0.0018822522267973526566
0.0020102938725770173878
0.0020618257628324293713
0.0020709584252018731904
0.0020730599511854181163
0.0020804294974340899714
0.0021013274650370063548
0.0021588145358647395193
0.0022878795258972099355
0.0024382720562381617058
0.0025830781151259482077
0.0026961759884721278081
0.0027612892051252350446
0.0027962309838528232389
0.0028482683417125455663
0.0029842090192572861239
0.0033747400806534203453
0.0037881977690982240013
0.0040258363754823063563
0.0041105409416933580413
0.0041237504660320070671
0.0041281981661474703715
0.0041433750980361594082
0.0041929507155014384551
0.0043068356049504709707
0.0044476686689918411982
0.0045981677290764921134
0.0047287073513183246545
0.004807771699132996901
0.004832743253765001655
0.0048334333492357486536
0.0048365089202403307653
0.0048770807319436912039
0.0050685219492013029383
0.0054943056589191220651
0.00585578735618415714
0.0061293841338522512055
0.0063175865993289476163
0.0064246916373916045095
0.00646904556283567269
0.0064994298195246392666
0.0065664644562713819428
0.0068036834321610747608
0.0074975392861031707817
0.0080916297417309036161
0.0083542528291798978657
0.0083988949510039045965
0.0083689393961201112571
0.0083017019177249080919
0.0083014348212688219425
0.008413460516308387746
0.0089591405904829533174
0.0097729736855220808445
0.010248241672440370695
0.010420169283057098553
0.010436304342661156808
0.010419974930339066452
0.010431088561241079471
0.010576697096537390416
0.010875070482072448502
0.010970541546452541523
0.010950329723351850605
0.010778799479088281565
0.010562073755526082616
0.010509189303157740608
0.010528128153678531151
0.010659453036362214612
0.01090036099676413954
0.011064921784553361644
0.011184652621259998095
0.011279508067930222801
0.011348303956472207549
0.011382001549493337214
0.011387684239857540427
0.011377312237660135164
0.011314085648829861133
0.011208496917368013235
0.011153692557498743124
0.011138969167406006025
0.011142316042513342872
0.011171116810769996311
0.011281548004056880449
0.011410743918566664673
0.011482737542909350961
0.011517041560721105395
0.011547523035621337986
0.011609638797260802764
0.011759891615805640602
0.011957498348774346641
0.012141183669631712763
0.012292096753032558804
0.012415627202274251428
0.012528261549817501161
0.012647258104422260533
0.01277827867690688006
0.012915579570484092206
0.013048679143034916036
0.013172136385590157981
0.013286058555340971021
0.01339663448134720096
0.013514452099314316902
0.013648473158346040648
0.01380260756611802371
0.013971734898697197799
0.01414658439830035995
0.014315894303896620557
0.0144696828082609176
0.014603502928233039887
0.014721105018146291715
0.014830650828470556823
0.01494676058817795937
0.015075980655008015818
0.015221676707756663996
0.015379870698374454099
0.015541566167876462445
0.015696426334666696567
0.0158352423321399087
0.015953624456544173577
0.016051159656444335261
0.016135269658666340914
0.016217857317065594719
0.01631339274912262452
0.016434255915245960661
0.016583631900579803159
0.016756773278515189191
0.01694313498628149256
0.017129819997551063576
0.01730363137978889812
0.017456860258543052677
0.017585830424418122386
0.017689463245366028599
0.017772288547131181308
0.017841131284837438015
0.017905157784272342919
0.01797410402322353537
0.018056414977775568642
0.018156627609275825808
0.018278148218041620487
0.018420011374465944387
0.018577972679695260033
0.018745401501190597782
0.01891727865605875164
0.019089485571848498896
0.019257660711068814302
0.01941610867228493395
0.01956170766037007222
0.019692409695425763111
0.0198047277155944286
0.019899011457876019521
0.019975526748472329647
0.020035513770258982919
0.020079013690639871403
0.020108352285712786239
0.020126897076141403442
0.02013572461607920222
0.02013877209985128966
0.02013929989642579757
0.019223377650670111366
0.019203985300563497507
0.019184755964267871664
0.019165016800758379739
0.019144710896623354235
0.01912435642259729951
0.019104280504295089588
0.019084572012986019546
0.019065279665812145948
0.019046538866570653786
0.019028067938905161155
0.019009368156591287258
0.018989851423746324788
0.018969569086890108317
0.018948651897602024341
0.018927722190563420201
0.018906871702903577798
0.01888655571077908768
0.018866494539003658693
0.018847112577719215415
0.018827890347417226835
0.01880901127557060501
0.01878971777487141101
0.018770710376719082491
0.018751785725242740843
0.018733478406446520126
0.018714482680618853977
0.018694706455577036336
0.018673472456468491465
0.018652042270130914786
0.018630394772746999843
0.018609761017676997724
0.018589606154395307142
0.018570787635490439843
0.018551998813245925563
0.018533484967512680458
0.018513786224242351208
0.018493955077122859604
0.018473467865163392676
0.018453752477729928883
0.018433891417073324653
0.018414772175361179829
0.018394986785337890528
0.01837527981628101631
0.018354109782352526908
0.018332692120512136119
0.018310083329798280266
0.018288418583477725199
0.018266855330767953203
0.018247095107788803559
0.018227226704517519862
0.018208299942171133484
0.018188140038457940167
0.018168263538990068323
0.018146999629744798438
0.018126294125709575822
0.018104375449243533674
0.018083122653465403401
0.018060924737485609809
0.018040237225363152385
0.018019534159266263618
0.018000663877947818692
0.017981212194782412311
0.017962962056519041903
0.017944002319844908067
0.017926461098685887025
0.017907832945317159884
0.017889743323515016477
0.017869864124867324007
0.0178506678520464028
0.017830161635426920036
0.017810654235713544585
0.017789598029190820117
0.01776953200298488772
0.01774809427565430045
0.017727995255775955835
0.017706642360603926795
0.017686569858648339137
0.017665208965789502144
0.017645223804870335121
0.017623790171658829801
0.017603630327022161406
0.017581944495542432133
0.017561773303685777187
0.01754038781816625106
0.017520697759039298436
0.017499792618550433221
0.017480667716660593797
0.017460250589772425417
0.017441417452714741421
0.017420972705878234182
0.017402053356665513756
0.017381929190831563181
0.017363815482908131343
0.017344574758884040433
0.017327031785091734362
0.017307781165196080286
0.017290174343103033999
0.017270831065559280604
0.017253060618416811434
0.017233054058185086344
0.017214332884740658064
0.017193408767537558118
0.017174209803897704657
0.017152781079827348482
0.017132787857879611115
0.017110327481068020317
0.017089715622895403774
0.017067642602773269722
0.017048505021244303448
0.01702830374462584867
0.017010812932337887604
0.016991395179099082202
0.016973817925892250441
0.016953867870497994069
0.016936019837307726699
0.016916272936252838704
0.016898745200882688694
0.016879006233507697771
0.016860851866197238552
0.016840177419932107761
0.016821100146209376491
0.016799729302203750964
0.016780152115053594691
0.016758694187331467373
0.01673919005367698748
0.016718195797019417409
0.016699430632576495875
0.016679391617280350107
0.016661571754671877094
0.016641996784218914679
0.01662390137926039041
0.016603445542080000341
0.016584536703537527264
0.016563878043604096657
0.016545733981903155974
0.016526534291958671491
0.016510121480503965608