/*--------------------------------*- C++ -*----------------------------------*\
  =========                 |
  \\      /  F ield         | OpenFOAM: The Open Source CFD Toolbox
   \\    /   O peration     | Website:  https://openfoam.org
    \\  /    A nd           | Version:  12
     \\/     M anipulation  |
\*---------------------------------------------------------------------------*/
FoamFile
{
    format      ascii;
    class       volScalarField;
    location    "0.00519";
    object      nut;
}
// * * * * * * * * * * * * * * * * * * * * * * * * * * * * * * * * * * * * * //

dimensions      [0 2 -1 0 0 0 0];

internalField   nonuniform List<scalar> 
75962
(
5.0764279367650650588e-07
6.0115861220424099017e-07
7.3925798293663092992e-07
8.7260890134069921715e-07
9.3309427698502403696e-07
9.5231892109379248477e-07
9.8330786382759609436e-07
1.0690985439953231839e-06
1.2142595086712027087e-06
1.3075682091646182757e-06
1.3604793438992576795e-06
1.4305437689425455011e-06
1.536112256971364665e-06
1.6483400088647332138e-06
1.7449212001464685625e-06
1.8236094453499716277e-06
1.8988644778215700108e-06
1.9925394117199978122e-06
2.1064505360181974486e-06
2.2105487736231397467e-06
2.2733336172980897209e-06
2.3062087549377161183e-06
2.3523957064831111795e-06
2.4318845211162764783e-06
2.5311730960777222948e-06
2.62207170776194703e-06
2.6834637206712726747e-06
2.7184624412114561822e-06
2.7565187976581506283e-06
2.8353089556473802571e-06
2.9714638190698357392e-06
3.1327927002182753979e-06
3.274295007577629808e-06
3.3728823842658573609e-06
3.4391858219661149354e-06
3.4939428187069546778e-06
3.543621839629386525e-06
3.5798504768702913572e-06
3.5984057026066994908e-06
3.6109709634114035254e-06
3.6362289288494198058e-06
3.7040544156711988128e-06
3.8513814459645676774e-06
3.9795562961540014408e-06
4.0532818717443638718e-06
4.0873369768296604138e-06
4.1332518495992495722e-06
4.2565233627986280525e-06
4.5849377865527690315e-06
4.880258030235121206e-06
5.025382746029728395e-06
5.062240582957875294e-06
5.0584405863451695055e-06
5.0406355848480781652e-06
5.0221764834085005813e-06
5.0160267957627775458e-06
5.0153773788659219667e-06
5.0304320741662346959e-06
5.1065036600139653315e-06
5.2566838708517900309e-06
5.3454619194645183039e-06
5.3692132865449330377e-06
5.3642270580909136678e-06
5.3578689034610514061e-06
5.3696996593708701476e-06
5.4496583632693746296e-06
5.6039464464183800284e-06
5.7277642983888816261e-06
5.8293843263432538953e-06
5.9113561970044571769e-06
5.9668567239264857228e-06
5.992747765672785323e-06
6.0044071972453797413e-06
6.0274609943056154776e-06
6.1023152864488577654e-06
6.3644006423260348398e-06
6.70473027822463513e-06
6.8936159109855252267e-06
6.9535983787555962185e-06
6.9522606912219896968e-06
6.9341064989780120737e-06
6.923691170147893048e-06
6.9397046163577211109e-06
7.057270877579650363e-06
7.3097631204647609747e-06
7.471074538289384671e-06
7.5335119705293616753e-06
7.5384015169745187095e-06
7.5279585535337244237e-06
7.5222830537327616384e-06
7.5383926122909316689e-06
7.5917546379242107529e-06
7.6048568574046076403e-06
7.5913921915367978244e-06
7.5347889735114604841e-06
7.4820022326368029159e-06
7.4718841155304040508e-06
7.4862364883821878417e-06
7.5719829328755542536e-06
7.6680705150659188459e-06
7.711558787072229565e-06
7.7238460228359469105e-06
7.7222399009955024137e-06
7.7170818559008628633e-06
7.7109826217278875033e-06
7.7017916109021912604e-06
7.6837936612551896432e-06
7.6644733211400994059e-06
7.6506155096208627631e-06
7.6418313929767905517e-06
7.6363372786488924253e-06
7.6339554580984846094e-06
7.6445974976060844351e-06
7.6900439200395980855e-06
7.7357419925586861731e-06
7.7663737578548488083e-06
7.7933256654884252662e-06
7.8271943102458039874e-06
7.8710395633975881072e-06
7.9199767348052963205e-06
7.964305924139696084e-06
7.9960714166487849395e-06
8.0126064672201921529e-06
8.017743927087369872e-06
8.0200344831966727054e-06
8.028995975990547461e-06
8.0589722757934400681e-06
8.1249019581536649362e-06
8.1959530873601818492e-06
8.2588437728623231496e-06
8.3072995726089885219e-06
8.3422886286880622119e-06
8.3702365767002578483e-06
8.3989917750056148656e-06
8.4332123019184349034e-06
8.4735546793267244205e-06
8.516004866746763668e-06
8.5546331423947304378e-06
8.5848757717527463755e-06
8.6051861068230318447e-06
8.6178249510373019327e-06
8.6287365753147958535e-06
8.6450159685123004904e-06
8.672720220627290648e-06
8.7144413143457712313e-06
8.7684184962499034659e-06
8.8292080733099717648e-06
8.8893662914725602933e-06
8.9423469577524150251e-06
8.9836873875179912947e-06
9.0125502847750236894e-06
9.0306746285911634236e-06
9.0419594418208644335e-06
9.051222028050638719e-06
9.0634284614312762732e-06
9.0820686991344028486e-06
9.1085517318726707799e-06
9.1426788979839877358e-06
9.181864788864153054e-06
9.2228840762538943937e-06
9.2623912624728149532e-06
9.2972889158134358438e-06
9.3262468110136484954e-06
9.3487805068874969578e-06
9.3658858228233516041e-06
9.3797498990172684769e-06
9.3928623286354585457e-06
9.4077022390363147542e-06
9.4265562952707914032e-06
9.450862827475885506e-06
9.4809305416764869654e-06
9.5158312434829912688e-06
9.5542458534930715746e-06
9.594830781905446646e-06
9.6354766178753667254e-06
9.6742458491283401416e-06
9.7096927690986597505e-06
9.7402574749889578152e-06
9.7651176712472753308e-06
9.7840348319868972291e-06
9.7972052547118183071e-06
9.8050862907935025525e-06
9.8083539575316009806e-06
9.8080303890969564349e-06
9.8049795842941141801e-06
9.8000786899366783354e-06
9.794029993122995551e-06
9.7874277047367291436e-06
9.3215200751630916481e-06
9.3102294633939025804e-06
9.2987548751120460645e-06
9.2871317015954668058e-06
9.2754125914479506156e-06
9.263737209952476381e-06
9.2522374403641390224e-06
9.2409343293338396371e-06
9.22970390034839659e-06
9.2184546647004765487e-06
9.2072236861569368537e-06
9.1961251567293708767e-06
9.1851500161710952639e-06
9.1741947432927950068e-06
9.1631636389424505913e-06
9.1520947660418441432e-06
9.1410229391571886802e-06
9.1299544996179690334e-06
9.1188399887632754144e-06
9.1077318049204722075e-06
9.0966634059007710466e-06
9.0857163092256697706e-06
9.0748640662803738534e-06
9.0641689777464443795e-06
9.0535353967290682365e-06
9.0429027205463167463e-06
9.0320202371933883362e-06
9.0208874388348084196e-06
9.009493408471640338e-06
8.9981409691440973966e-06
8.9868677112475485143e-06
8.9758485779577215467e-06
8.9648952389749275211e-06
8.9540838385033743018e-06
8.9431861227044074622e-06
8.9323028751129666258e-06
8.9212437525035413104e-06
8.9102105745863300452e-06
8.8990946017176887487e-06
8.888126395220889047e-06
8.8771069473953551646e-06
8.8661901977632629087e-06
8.8551042992072992037e-06
8.8440512911843958673e-06
8.8327669296152831952e-06
8.8215541191590410926e-06
8.8101985992918397468e-06
8.7990570842834755919e-06
8.7878488169590835533e-06
8.7768591677446973785e-06
8.7657671467179731174e-06
8.7548443352026755147e-06
8.7436961108107878797e-06
8.7325650045029060581e-06
8.7211160319664057756e-06
8.7097663567017315992e-06
8.6982763430198481599e-06
8.6870513134356494876e-06
8.675802040960827377e-06
8.6649193084623004057e-06
8.6540688750436032812e-06
8.6435561653514947914e-06
8.6329410561052995654e-06
8.6225940086903069779e-06
8.6121301250422889684e-06
8.601953048788221664e-06
8.5915603511483483934e-06
8.5812614632199117495e-06
8.5705582930797921502e-06
8.5598989023030806972e-06
8.5489090881835549436e-06
8.5381147682664780861e-06
8.5270628320164196484e-06
8.5162475226425203361e-06
8.5051909830065826242e-06
8.4944343211323139849e-06
8.4834882065880203928e-06
8.4728422721087544073e-06
8.4619679472083738367e-06
8.4513623266923215476e-06
8.4405246965167516401e-06
8.4299675224328595623e-06
8.4191495682573699232e-06
8.4085574735805831173e-06
8.3976828225198256282e-06
8.3870587116707005575e-06
8.3762166271720050933e-06
8.3656126922374570934e-06
8.3547527709687994607e-06
8.3440940050151521861e-06
8.33331409585918141e-06
8.3229340583444875112e-06
8.3126153009927190759e-06
8.3026852541929323112e-06
8.2926448963553873236e-06
8.2827567491235967647e-06
8.2725409200342330364e-06
8.2623630574392094614e-06
8.2518430654106019411e-06
8.241466528075856371e-06
8.2309104434990549995e-06
8.2206698227664571661e-06
8.2102636349317743457e-06
8.2000627615846979212e-06
8.1894625603924064701e-06
8.1789503007158365262e-06
8.1680798077561411275e-06
8.1575285224396365188e-06
8.1468934722393324588e-06
8.1367615649539112263e-06
8.1265535842342389325e-06
8.116683061457464712e-06
8.1065481808859279412e-06
8.0966234690399808223e-06
8.0864504687338497534e-06
8.076547889127289631e-06
8.0664498170312082367e-06
8.0566053623336749128e-06
8.0465469965000854666e-06
8.0366933199829246375e-06
8.0265736708847122943e-06
8.0165721672219005862e-06
8.0062681622146502464e-06
7.9960520384264661178e-06
7.9855972259190627539e-06
7.9752898662484703236e-06
7.9648811358524315484e-06
7.9547667709774141904e-06
7.9446585661937869276e-06
7.9347802408022131862e-06
7.924780181359763608e-06
7.9148098047021593984e-06
7.9046972607678028707e-06
7.8946399637450755864e-06
7.8845595437243844411e-06
7.8746422795083981862e-06
7.8647793018163812055e-06
7.8551399568881098825e-06
7.8454532504531644546e-06
7.8358932560903723894e-06
7.8261381435810869415e-06
7.816540138047430619e-06
7.8068358885927224264e-06
7.7974460989285219819e-06
7.7880136863598243652e-06
7.7788815860034161704e-06
7.7695910207801030967e-06
7.7604340081755390768e-06
7.7509523040154809881e-06
7.7414701584740283039e-06
7.7316889495409657008e-06
7.7219030266997774257e-06
7.7120082375169612997e-06
7.7021626891669800485e-06
7.6924039315592892901e-06
7.6827865329284398101e-06
7.673265362346628121e-06
7.6638831031118361095e-06
7.6543678458231102698e-06
7.6449985013592605887e-06
7.6353436633852374374e-06
7.6258719340197877028e-06
7.6161019686931670408e-06
7.6064096446760072229e-06
7.5965214121314402284e-06
7.5866105573545175863e-06
7.5767043418867166467e-06
7.5668775224832559236e-06
7.5572030194543098075e-06
7.5477869620501340824e-06
7.5384765183801937668e-06
7.5293468580744893451e-06
7.5202188862948586462e-06
7.5110390712424247682e-06
7.5018807825538808497e-06
7.4925139483740760436e-06
7.4832097088721964408e-06
7.4737017060185891525e-06
7.4642794211959081764e-06
7.4547469298368561081e-06
7.4454313157670290894e-06
7.4359341579114179919e-06
7.4268375134886742794e-06
7.4174564823388487858e-06
7.4083624095706431217e-06
7.3989835337312072222e-06
7.389750146955264442e-06
7.3802749561262338319e-06
7.3711229489194248876e-06
7.3617084587499504182e-06
7.3528218758915190963e-06
7.3435178172235487416e-06
7.3347468637341324617e-06
7.3254602645450930809e-06
7.3167462104604414898e-06
7.3074859052839550157e-06
7.2988982066494177928e-06
7.2897572787949559806e-06
7.2812905462885369782e-06
7.2722274481338854731e-06
7.263844327813663435e-06
7.2548766684739185876e-06
7.2466277670503254362e-06
7.2379225847845426214e-06
7.2300002837287376923e-06
7.2215145483146414636e-06
7.213704559005382242e-06
7.2051062082831109404e-06
7.1969808171828583801e-06
7.1880654253155461277e-06
7.1797255175768507981e-06
7.1706056656520664132e-06
7.1622648262655771312e-06
7.1531140985641826689e-06
7.1448842474563992579e-06
7.1359171579633475381e-06
7.1280240919045325304e-06
7.1193541050759863025e-06
7.1118236712717546735e-06
7.1033566083647914398e-06
7.0959582425819517067e-06
7.0875715618152067247e-06
7.0801179100831194971e-06
7.0716489418349404473e-06
7.063987275228785447e-06
7.0553447885945682887e-06
7.0475834216506153004e-06
7.0388609182829915513e-06
7.0311026583375303624e-06
7.0223372342101893724e-06
7.014526674582038178e-06
7.0057498974775619995e-06
6.9979841253948161069e-06
6.9893074875265037078e-06
6.9817110058823970029e-06
6.9730890612694244667e-06
6.9656492661941709198e-06
6.9571723250927580988e-06
6.9499110593185018951e-06
6.9416049601705483372e-06
6.9345283096918712727e-06
6.9262362471558470202e-06
6.9191476765018705171e-06
6.9109038881855322959e-06
6.9038559510375558176e-06
6.8956734473257593715e-06
6.8887200067807379499e-06
6.8806271243984438296e-06
6.8737296350416816131e-06
6.8657088526932012808e-06
6.8589390623686576626e-06
6.8510446913884134618e-06
6.8442752452723199706e-06
6.8363727965665171173e-06
4.8780310416601734326e-07
5.7530104825879017768e-07
7.0659720741816425178e-07
8.6573004468619691306e-07
9.7159507953775134164e-07
1.0414522015556365025e-06
1.1160751067602581348e-06
1.1852523923515811389e-06
1.2452275895131535001e-06
1.3242992051429301871e-06
1.4347081567132467883e-06
1.5539905166591053204e-06
1.6527430214801875984e-06
1.7345182947560052301e-06
1.8259968228500423282e-06
1.935984314841949301e-06
2.0467249773218971911e-06
2.1473939204379223262e-06
2.2429582378733476924e-06
2.3234714013800033186e-06
2.3715248538111199396e-06
2.4021108889861271387e-06
2.4548661487571221084e-06
2.5512707163755436024e-06
2.6708816519077022695e-06
2.7768339840041490487e-06
2.8459256344733920618e-06
2.8798941710823687441e-06
2.9021360816437776942e-06
2.9442154698187977501e-06
3.0487948605790790766e-06
3.2246445305768455008e-06
3.3931203046779055907e-06
3.5236814886500800085e-06
3.6105241337981677992e-06
3.6647363014566211755e-06
3.6990996297251949943e-06
3.7201145338071388169e-06
3.7346521249650267306e-06
3.7563878729841313628e-06
3.8054154899019420562e-06
3.9261299386348634283e-06
4.0826264509660450041e-06
4.2146704868215147525e-06
4.2936039334448147326e-06
4.327448602508142873e-06
4.3623583887871953405e-06
4.4514487556025684361e-06
4.7214705200109777843e-06
5.0346232165412553038e-06
5.2077851900391593825e-06
5.2647258666430769294e-06
5.2668587149792237424e-06
5.2569818566457517242e-06
5.2453890291841014589e-06
5.2414903254348405368e-06
5.2419050293528553764e-06
5.2585857546097499317e-06
5.3339329439700378479e-06
5.4741831138160443297e-06
5.5649345784520933925e-06
5.5980607237395476003e-06
5.5983211444105948599e-06
5.5935718136677002284e-06
5.598239868172822063e-06
5.6478441922917704062e-06
5.8033222500036617407e-06
5.9719622323288071373e-06
6.1156353803455669544e-06
6.2316966637704961635e-06
6.3091515126550274767e-06
6.3456113954499038861e-06
6.3593315399203211954e-06
6.3800759813171055494e-06
6.4448461205215691302e-06
6.6660687382130646818e-06
6.9541800493307326936e-06
7.1202188228363780302e-06
7.1759160884607995826e-06
7.1758396820758845472e-06
7.1649310371906523321e-06
7.1629694287258516757e-06
7.2094043750217656215e-06
7.4310170498829505265e-06
7.7348939482254529731e-06
7.9051120661390322667e-06
7.9630745075875554142e-06
7.9639796710348130065e-06
7.951650479407216244e-06
7.9473039913680704297e-06
7.97634264672142398e-06
8.0520330905257860845e-06
8.0718126716473985731e-06
8.0582231425891568094e-06
7.9960586201693970715e-06
7.9333509314851873739e-06
7.9206220965223606939e-06
7.9359202561375533948e-06
8.031309516956454232e-06
8.1380982654248776694e-06
8.1837806215949061855e-06
8.1935085797379557295e-06
8.1898383923590134954e-06
8.183467613956934433e-06
8.1740370468804085091e-06
8.1524976371280274241e-06
8.1172109909599943483e-06
8.0920694561962703954e-06
8.0784332402337572746e-06
8.0722385678657356618e-06
8.0723642334768449852e-06
8.0936308402227806339e-06
8.1182753300995118989e-06
8.1287975264465952852e-06
8.1379698173560866594e-06
8.158529516620464158e-06
8.1970639105346128881e-06
8.250112485696544287e-06
8.3069821549093031041e-06
8.355351735932598116e-06
8.3874465484840465319e-06
8.4024773277312673017e-06
8.4073729280570750022e-06
8.4132317447174700834e-06
8.431157427484250956e-06
8.4695513958375141556e-06
8.5228186399225344075e-06
8.582624426057718607e-06
8.6397534638382349404e-06
8.6882522013103817083e-06
8.7273548872402981777e-06
8.7610030420132199383e-06
8.7953362985293359291e-06
8.8347506681676243032e-06
8.8805534060045205182e-06
8.9303972940409504492e-06
8.9787521210969409877e-06
9.0196386863129345723e-06
9.0491682985627598949e-06
9.0665246777184126662e-06
9.0752334839755993841e-06
9.0817147654984076312e-06
9.0936180154483322918e-06
9.1177570283041650304e-06
9.1577413804042559779e-06
9.2133281493881722144e-06
9.2797553887466307707e-06
9.3492334181539983042e-06
9.4136677227489251271e-06
9.4657760794395671256e-06
9.50179834206326017e-06
9.5215733905178131141e-06
9.5285521870650487556e-06
9.5286812446985608523e-06
9.5296207081359720194e-06
9.5388512018238790532e-06
9.5645495788637056563e-06
9.6010344231510277705e-06
9.6437821450085082608e-06
9.6887478178457194194e-06
9.732145966616724314e-06
9.7707008341996064475e-06
9.8029462994910310458e-06
9.8283137203450932876e-06
9.8480588493572936463e-06
9.8645297847193382835e-06
9.8803926017237786808e-06
9.898316848094926854e-06
9.9207157950663806597e-06
9.9490161298717598643e-06
9.9830726866815527724e-06
1.0021724963019118526e-05
1.006350116571556599e-05
1.0107047082489408301e-05
1.0150170455186467429e-05
1.0191066006079863631e-05
1.0228522772000080897e-05
1.0260910259908022214e-05
1.0287453754453449698e-05
1.0307792882898075181e-05
1.0321990919626225231e-05
1.0330520024316879502e-05
1.0333986694731862603e-05
1.0333603601529260365e-05
1.0330190758982983788e-05
1.0324748016906038235e-05
1.0318060470874376348e-05
1.0310796269206506996e-05
1.0303108145917583047e-05
9.8229046506045716055e-06
9.8112026273120931817e-06
9.799391375292445207e-06
9.7873713269320285191e-06
9.7751757273360456686e-06
9.7629613457447285418e-06
9.7508703184459342641e-06
9.7389594616744885912e-06
9.7272029304792953443e-06
9.7155326549139736013e-06
9.70387667508364932e-06
9.6921960022428729699e-06
9.680486981804564407e-06
9.6687453846117057574e-06
9.6569561531474503428e-06
9.6451173526915783023e-06
9.6332817949006827198e-06
9.6214794195532286675e-06
9.6097467173994501857e-06
9.5980566898543271379e-06
9.5864490062622188723e-06
9.5748665704163413371e-06
9.5633513413915420212e-06
9.5518787976561007452e-06
9.5405778901781189844e-06
9.529354703343433203e-06
9.5181183686801472426e-06
9.5065853355027729431e-06
9.4947739719559366592e-06
9.4827362188421156583e-06
9.4707769947994934368e-06
9.458970046300885966e-06
9.4474460158222548113e-06
9.4360534953802285694e-06
9.4247875144011363598e-06
9.4134191069855423239e-06
9.4019816422619077165e-06
9.3903603480709284918e-06
9.3787412921192554163e-06
9.3670888852678698105e-06
9.3555554376528666019e-06
9.3440210403490545581e-06
9.3325599634704098546e-06
9.3209830293775534471e-06
9.3093384460608583444e-06
9.2974386863053393463e-06
9.2854853055725297152e-06
9.2734540278591501934e-06
9.261649242616514714e-06
9.2499523668390036649e-06
9.2384907976357483168e-06
9.227003024366445811e-06
9.2155715141551562328e-06
9.2039425248663476e-06
9.1922617963815205492e-06
9.1803555231960965285e-06
9.1684644307045394599e-06
9.1564561164200427602e-06
9.1445902503242802869e-06
9.132795643547076146e-06
9.1213266216447065577e-06
9.1100089930130747278e-06
9.0989238206361461401e-06
9.087829874885427464e-06
9.0769117774864291267e-06
9.0660103057543113254e-06
9.0552516330465619628e-06
9.0443548895071469083e-06
9.0333854569581928466e-06
9.0221812301380533295e-06
9.0109250144466403551e-06
8.9995151010099649371e-06
8.9881017450577602878e-06
8.9765669861807433278e-06
8.9650732501351611443e-06
8.9535426030118249788e-06
8.9421291286724883634e-06
8.9307129769690179257e-06
8.9193810793198440576e-06
8.9080030482330849699e-06
8.8966530001269656438e-06
8.8852542243717249032e-06
8.8738899646675935528e-06
8.8625060966803558622e-06
8.8511844177638430552e-06
8.8398634626059128145e-06
8.8286464270051597176e-06
8.8174564329293266435e-06
8.8063342839345109387e-06
8.7951381791567760367e-06
8.7839283338746640645e-06
8.7727277342684763098e-06
8.7617167262693524651e-06
8.7509197717283113024e-06
8.7403204225747319241e-06
8.7297714723804386054e-06
8.7192026761131164418e-06
8.7085386600582256623e-06
8.6978058840248313331e-06
8.6869509159331837546e-06
8.6760259092390448646e-06
8.6650341596409997805e-06
8.6540799360893695257e-06
8.6431297800302097679e-06
8.6321440062262548646e-06
8.6209858641218436689e-06
8.6096930972543468105e-06
8.5983031668176707182e-06
8.5870596229206813812e-06
8.5760003989203907577e-06
8.5652457715203228928e-06
8.5546438233981838905e-06
8.5441174481015099573e-06
8.533518693066631484e-06
8.5228787134528436457e-06
8.5122314648655636991e-06
8.5016524878391889716e-06
8.4911260048480525597e-06
8.4805932205789962865e-06
8.4700240668870620936e-06
8.4593755550884956789e-06
8.448661558561110826e-06
8.4378546726838732611e-06
8.4269798687518647544e-06
8.4160264743101831245e-06
8.4050702818213054686e-06
8.3941085236158424223e-06
8.3832710190321210405e-06
8.3725592942366297024e-06
8.3620434600507544701e-06
8.3515633212049887938e-06
8.3411059464906893977e-06
8.3304721689978615155e-06
8.319842767771284668e-06
8.3091267816864925106e-06
8.2985972038464905955e-06
8.2881529408215597835e-06
8.2779675062709140199e-06
8.2678529760085225914e-06
8.2578416571646231516e-06
8.2477390266475894472e-06
8.2375827835772957614e-06
8.2273608717252662807e-06
8.2171644308149022396e-06
8.207058534943671241e-06
8.1971010656629978791e-06
8.1872788450536686109e-06
8.1775860481945834363e-06
8.1678704716200877309e-06
8.1580781698851178587e-06
8.1480205293539657445e-06
8.1378513880135854502e-06
8.1274336733371995432e-06
8.1171197980357886207e-06
8.1066836970638902912e-06
8.0964980788443566625e-06
8.0862787680455721083e-06
8.0763096632282940969e-06
8.066315942436018448e-06
8.0563706707092827038e-06
8.0463683379238372053e-06
8.0362679601799990144e-06
8.0261343460969039381e-06
8.0159278451449509327e-06
8.0056125365669197918e-06
7.9953281860542354051e-06
7.9848530191586707924e-06
7.9746079971645200077e-06
7.964237827719413898e-06
7.9542159047056945907e-06
7.9442068976452756584e-06
7.9345159329648202843e-06
7.9248188834516895482e-06
7.9153675841533313817e-06
7.9057069914194922397e-06
7.8962556137369948196e-06
7.8863867177912333695e-06
7.8767531016071266799e-06
7.866649502059369799e-06
7.8568331922067692288e-06
7.8466438692572737339e-06
7.8368983728199023838e-06
7.8267978238366428279e-06
7.817295289200722937e-06
7.8073534178642233698e-06
7.7978726010793250026e-06
7.7879182492876456448e-06
7.7782925920796972734e-06
7.7682443025692133319e-06
7.7587101336012512525e-06
7.7486851514572089591e-06
7.7393708233278666589e-06
7.7294541581981686585e-06
7.7202590271646286195e-06
7.7104104661605766586e-06
7.7013331607083714003e-06
7.6915299923404008601e-06
7.6825842701090366922e-06
7.6728708865030633508e-06
7.6640152073973918776e-06
7.6543468309333561619e-06
7.645487903354899773e-06
7.6358277561421881486e-06
7.6270279299392688824e-06
7.6175427940022704e-06
7.6090300833913252832e-06
7.5998268681441651269e-06
7.5915079682186464898e-06
7.5823170295645644654e-06
7.5738149020159626233e-06
7.5644198807447741106e-06
7.5557834084214332951e-06
7.5462295692024957867e-06
7.5376270065578257997e-06
7.5280287668464443871e-06
7.5195103178405520969e-06
7.5100537674760511496e-06
7.5017994331941186323e-06
7.4926093987402852522e-06
7.4846555353992428954e-06
7.4755904133183081019e-06
7.4677446052503401719e-06
7.4587393963990656208e-06
7.4508457167314749047e-06
7.4417655574394160715e-06
7.4337308707614724952e-06
7.4245134601224639569e-06
7.4163312906892402829e-06
7.4070196757019394733e-06
7.3987902057620138577e-06
7.3893801950423730119e-06
7.3810910911798372917e-06
7.3716834810289132371e-06
7.3634887376496319252e-06
7.3542134017417624714e-06
7.3462159307486475754e-06
7.3370603269253698307e-06
7.3292460419385291282e-06
7.3202574832272539234e-06
7.3126839464589388483e-06
7.3038446222715051201e-06
7.2963953077723544505e-06
7.28755346760887204e-06
7.2800558920376917579e-06
7.2712409393456829384e-06
7.2637682645821351345e-06
7.2550525502671925568e-06
7.2476956174907553894e-06
7.2390417910645296577e-06
7.2317423255272592162e-06
7.2231737252072139246e-06
7.215965554575730214e-06
7.2074879727999938362e-06
7.2002910476903180241e-06
7.1917900731952362237e-06
5.7318689591446044814e-07
6.8867577078240015599e-07
7.9130664271885367951e-07
9.1522285808384520081e-07
9.9097780112041967063e-07
1.0593523238502869591e-06
1.151152886230723167e-06
1.2294400523971456443e-06
1.2958476393458806747e-06
1.3870320311625295906e-06
1.5129202525734065092e-06
1.6461111409520813055e-06
1.7456894671773704814e-06
1.8159920518452807797e-06
1.9002234661076793061e-06
2.0155883228363218046e-06
2.1390875727136818033e-06
2.2518316236213310914e-06
2.3561380605080412336e-06
2.4405546907209988313e-06
2.4895091014867622308e-06
2.5196699915646146693e-06
2.5727333194580752114e-06
2.6726328005440056562e-06
2.7913519947674611879e-06
2.8901494486112201245e-06
2.9505312068311378164e-06
2.9835692363784351656e-06
3.0222634930889247784e-06
3.1050074639793585424e-06
3.2839835445309196629e-06
3.5047647120883203285e-06
3.6994795706532666556e-06
3.8208670287839437694e-06
3.8670439117662642624e-06
3.8729606468273984989e-06
3.8722019134764217436e-06
3.8763368979784111067e-06
3.8929849496369858979e-06
3.9429561347846842247e-06
4.0561421111984182991e-06
4.1844390050917887756e-06
4.3039806878323247838e-06
4.3942770341922797871e-06
4.4440664850050286402e-06
4.4690126544405073844e-06
4.5071614829348622734e-06
4.6098745233036999785e-06
4.8982919958044407894e-06
5.1865345422141481013e-06
5.343475139529078256e-06
5.3959087225508038844e-06
5.4008710732046124838e-06
5.4000056933297162291e-06
5.4061216072487879012e-06
5.4344672274213904576e-06
5.5038381966775770147e-06
5.5891978941118760895e-06
5.6790485953636511032e-06
5.7551950171937795402e-06
5.7992099853928602386e-06
5.8103011998257477407e-06
5.8066921026226193695e-06
5.8044714332470779213e-06
5.824547710296244213e-06
5.9330997957415453637e-06
6.1729041609336484872e-06
6.3685499215054341144e-06
6.5112908274578336923e-06
6.6060723027819798168e-06
6.6573499871699867464e-06
6.6757284861186825343e-06
6.6867281924925154151e-06
6.7163454226897035539e-06
6.8312965933696070169e-06
7.1656782564554764688e-06
7.4396254683785190647e-06
7.554614832926974296e-06
7.5697222715954003456e-06
7.5510764687083975645e-06
7.5153910155424951566e-06
7.5099581142579846201e-06
7.5548378679946338413e-06
7.7896366677943831288e-06
8.130514521493040057e-06
8.3206230822296290306e-06
8.3846594125898746952e-06
8.3854405186904191203e-06
8.3730662082048284045e-06
8.3716336507990370038e-06
8.4236453990328099861e-06
8.5358636967976893648e-06
8.567546319796431748e-06
8.5538231939333065512e-06
8.4809392226409199296e-06
8.3892086717170437582e-06
8.3622113100377767247e-06
8.3638587896567461355e-06
8.4097578422583201674e-06
8.4984015280568455015e-06
8.556441852288849804e-06
8.5966734148556291805e-06
8.6270801495223023734e-06
8.6473761680411560029e-06
8.654234074247278371e-06
8.6504090287484886463e-06
8.6405015709031752282e-06
8.6105975330414102046e-06
8.5643395879643614387e-06
8.5373757574456119975e-06
8.5257708097971571665e-06
8.5211111537467871749e-06
8.5261328350872742343e-06
8.5621010976166829742e-06
8.6050782102924664374e-06
8.6262544324520392275e-06
8.6331570848117281428e-06
8.6385494174716783122e-06
8.6556650527817638181e-06
8.7053100207362510258e-06
8.7720415450466489348e-06
8.8330607267041200842e-06
8.8816712166854789939e-06
8.9200293274285092195e-06
8.9541862174164556535e-06
8.9903502243426419775e-06
9.0305086758049299048e-06
9.072586937009379738e-06
9.1128891609961015216e-06
9.1495479992543728577e-06
9.1826518751233620897e-06
9.2143772949335228846e-06
9.2483664573428340659e-06
9.2876381820005239289e-06
9.3334338197887403927e-06
9.3839160213882397165e-06
9.4358971116898549171e-06
9.4856128571893116744e-06
9.5298181530447240829e-06
9.5671504417882706397e-06
9.5989364041419221007e-06
9.6278965941348898912e-06
9.6587906023670983235e-06
9.693700917429360874e-06
9.7336512812609685873e-06
9.7773038908445527266e-06
9.8217546512402622286e-06
9.8637375515056723734e-06
9.9004063036360046409e-06
9.930466969965748823e-06
9.9538726595920266156e-06
9.9729866065913924406e-06
9.9915172087887838947e-06
1.001391481384097773e-05
1.0043929571767989844e-05
1.0082439962607293117e-05
1.0127884078453675186e-05
1.0176973774763767999e-05
1.0225790080609066673e-05
1.0270417885607285708e-05
1.0308648735390802515e-05
1.0339497249464143919e-05
1.036274057836493772e-05
1.0379779095252172932e-05
1.039265160784152971e-05
1.0404050151633392773e-05
1.0416807440658459524e-05
1.0433357961078296546e-05
1.0454980676077077936e-05
1.0482606202279160529e-05
1.0515892089384873111e-05
1.0553556151691364306e-05
1.0593652589109734565e-05
1.0634722895326085396e-05
1.0675596224802062035e-05
1.0715066229114235429e-05
1.0751583354403534197e-05
1.0784332386319138913e-05
1.0812802266250535839e-05
1.083608596685370801e-05
1.085432778764797649e-05
1.0867644542743438212e-05
1.0876413011332277934e-05
1.0880675069009353731e-05
1.088108186125819941e-05
1.0878558166169012284e-05
1.0873401317315326182e-05
1.0866677782348752e-05
1.085927189098304594e-05
1.0340346635270533635e-05
1.0327951076652350926e-05
1.0315612610413591545e-05
1.0303149438664931513e-05
1.0290543098167867787e-05
1.0277929914594331021e-05
1.0265397170811727459e-05
1.0252970488292463975e-05
1.0240665754666714162e-05
1.0228521548958733947e-05
1.0216462900089556823e-05
1.0204355362489212077e-05
1.0192039685666165854e-05
1.0179528104177533866e-05
1.0166854297469395731e-05
1.0154184217929710076e-05
1.0141542067808534069e-05
1.0129050853414411348e-05
1.0116637269590333082e-05
1.0104416732945659246e-05
1.0092250319129821999e-05
1.0080186140311104802e-05
1.0068019531288623737e-05
1.005593764463806093e-05
1.0043887433483513651e-05
1.0032014798542885801e-05
1.0019971625567045018e-05
1.000773195997586699e-05
9.9951107593421835082e-06
9.9824416375315907574e-06
9.9697169868175062446e-06
9.9572679428249468911e-06
9.9449555142266506195e-06
9.933013171693858096e-06
9.9210932465642620457e-06
9.9092603395971103232e-06
9.897120766053085902e-06
9.8849522140391980318e-06
9.8726130027424841771e-06
9.8604857695067038098e-06
9.8483283675268099136e-06
9.8363811386695841415e-06
9.8242701022927501219e-06
9.8121940836119208207e-06
9.7997391661703429265e-06
9.7872265562416096426e-06
9.7744013014320430482e-06
9.7618325603889878356e-06
9.7492968062255500939e-06
9.7372506297542551877e-06
9.7251862015900701473e-06
9.7133847758185357671e-06
9.7012660962520672856e-06
9.6892337389843070325e-06
9.6768410715453128778e-06
9.6646062810083796892e-06
9.6520566489889716977e-06