/*--------------------------------*- C++ -*----------------------------------*\
  =========                 |
  \\      /  F ield         | OpenFOAM: The Open Source CFD Toolbox
   \\    /   O peration     | Website:  https://openfoam.org
    \\  /    A nd           | Version:  12
     \\/     M anipulation  |
\*---------------------------------------------------------------------------*/
FoamFile
{
    format      ascii;
    class       volScalarField;
    location    "0.00519";
    object      p;
}
// * * * * * * * * * * * * * * * * * * * * * * * * * * * * * * * * * * * * * //

dimensions      [1 -1 -2 0 0 0 0];

internalField   nonuniform List<scalar> 
75962
(
98987.538690820540069
98941.554764515254647
98986.306518363300711
98922.418554804724408
98900.118134906209889
98927.095210883097025
98854.237705164210638
98709.60055193444714
98580.784747550162137
98564.522956268847338
98672.55799335782649
98780.690150984883076
98750.137395978716086
98649.396151503286092
98635.250443357494078
98698.304784547261079
98757.218260008099605
98767.323769313079538
98712.954061969314353
98656.92609425446426
98662.288983941907645
98707.110336138808634
98724.254654443473555
98704.836291464845999
98684.758831635001116
98679.651381385308923
98662.194638444780139
98627.386694138520397
98599.032838112369063
98583.110778075206326
98581.300998688107939
98609.394104559120024
98665.4755485059286
98710.891959281492746
98709.94458421303716
98665.602832850709092
98614.103560432762606
98577.816300222373684
98556.354932863992872
98542.843744936923031
98541.016354719526134
98554.050187699001981
98576.608410191038274
98598.577181326560094
98607.752298004605109
98614.11467026801256
98616.06860170631262
98612.721545247914037
98615.988127846736461
98628.854551654498209
98630.674792101592175
98613.077295417358982
98591.470836939814035
98575.858928169967839
98573.163517644105013
98580.727793189435033
98593.535526732142898
98590.433380867107189
98559.715023183191079
98520.900196237053024
98494.802446154528297
98490.551089053085889
98485.391478971127071
98481.889952379089664
98497.134864852079772
98529.876279714851989
98550.365819723927416
98537.936452426511096
98509.916300037468318
98492.791995740743005
98490.73769657984667
98490.978455087810289
98487.912221659207717
98490.136356827380951
98505.654657787337783
98521.942149070237065
98524.805917047007824
98507.009450350073166
98465.930410059459973
98411.653724321557092
98361.060472350742202
98334.496759456495056
98344.451969166242634
98378.627011779186432
98403.657200697256485
98396.5933374697197
98365.455917664905428
98341.587669289117912
98350.301991634783917
98391.446152412798256
98437.881454819405917
98460.512458272423828
98452.446466075169155
98433.734284927690169
98429.858686049003154
98445.908717751066433
98462.797290132410126
98459.448272059875308
98433.112471999178524
98398.488029983840534
98373.031169652895187
98362.851860289345495
98365.204662256976007
98373.323082576855086
98383.872060333378613
98394.348259798498475
98401.62333701402531
98401.84680411365116
98395.741762565565296
98388.739025870439946
98383.609526474785525
98376.956532183394302
98364.236678571338416
98346.162841776735149
98328.127668342320248
98315.873183022544254
98309.239628350129351
98306.823928780067945
98312.425726722096442
98331.461122495413292
98362.26271534015541
98392.827259923738893
98407.26249057331006
98399.547423508382053
98377.054894902161323
98355.144085249470663
98343.770813332535909
98342.536508113684249
98344.92217906199221
98346.39469682663912
98347.487315729609691
98351.718181948323036
98361.619180800480535
98376.116963003150886
98390.631896899503772
98400.901538992722635
98406.935475868653157
98413.150652735901531
98425.208011843351414
98443.811055356272846
98462.608704117083107
98473.730687896691961
98475.733334935852326
98476.151840500577237
98485.122663297617692
98506.500130807689857
98534.24550449133676
98557.694441965883016
98570.173986441659508
98572.642917267658049
98570.858285879090545
98569.628985591611126
98570.208351414534263
98571.594736986618955
98573.489099343190901
98576.910092685880954
98582.740353767410852
98590.745705835521221
98598.938435264659347
98605.111789309929009
98608.948755690726102
98612.609997624633252
98618.654331183701288
98628.030113704517134
98638.886706322926329
98647.550400137843098
98652.351163556944812
98654.306603736637044
98655.542621655928087
98657.534286472509848
98660.576327791306539
98664.402212623754167
98668.993347436815384
98674.465299717747257
98681.635375932761235
98691.227426880854182
98702.329215474572266
98712.700889150393778
98720.418280155834509
98725.506839054942247
98729.945123949815752
98736.389990016439697
98746.777806125828647
98761.18960089002212
98777.402326354116667
98791.85889917271561
98801.18653968309809
98803.574722461300553
98600.129800270180567
98597.138291468159878
98586.334406302572461
98568.738712285863585
98549.456211515338509
98534.488405388081446
98526.9974395356694
98525.890481022026506
98527.798269636288751
98530.219251217902638
98532.815874226813321
98536.462570837597013
98541.629705591636593
98547.730774367038975
98553.884249305192498
98559.933020868338645
98566.510107122521731
98574.139680628373753
98582.439404872930027
98590.390334510928369
98597.669139838137198
98605.685390887447284
98616.999960674234899
98632.988068949212902
98651.571645325951977
98667.081732021542848
98672.923181177975493
98665.59486816226854
98647.419629316660576
98625.917290585202863
98610.053723978431663
98605.985885724890977
98614.385600206340314
98630.579611290493631
98647.744693266373361
98660.897318095725495
98669.187084423887427
98675.289179017476272
98682.936562838585814
98694.173290910883225
98708.213810779692722
98722.173351531921071
98733.190266188204987
98739.989285341347568
98743.538654954798403
98745.984582465476706
98749.448381467562285
98754.888193045277148
98761.518473025411367
98767.291478480125079
98770.06516117764113
98768.502056414901745
98762.54357620497467
98753.245232801840757
98742.22272871468158
98731.071100034823758
98721.114748490072088
98713.458374153386103
98709.250841746645165
98709.66023338236846
98715.785737886471907
98728.339302983542439
98747.53856135076785
98772.735592434110004
98802.085210607896443
98832.599566996723297
98860.482298330258345
98882.127099631514284
98895.211918618195341
98899.604399135962012
98897.472154614981264
98892.230514160939492
98886.936468814048567
98883.236324021781911
98881.115200527652632
98879.387596932108863
98876.694875687506283
98872.4172980695148
98866.938130128139164
98861.304923978692386
98856.818697132446687
98854.371265739406226
98854.075673803585232
98854.84397130398429
98854.76180031131662
98851.753529165522195
98844.551011264382396
98833.60892570685246
98820.992354073518072
98809.923496838106075
98803.934530334125157
98805.397774127210141
98814.396392089940491
98828.773675798001932
98845.019586192196584
98859.60260140534956
98870.229089238870074
98876.495843730910565
98879.340700104556163
98879.628971756916144
98877.357509610243142
98871.561150652036304
98861.085464725227212
98845.633151125686709
98826.528850132279331
98806.595737864918192
98789.142506665215478
98776.617507737159031
98769.643155214042054
98766.991020810746704
98766.331882958547794
98765.776108183912584
98764.665331500989851
98763.561298301516217
98764.315677558697644
98768.516960303240921
98776.500212194019696
98786.751478243444581
98796.255404178256867
98801.593017540886649
98800.195704637269955
98791.153807798880734
98775.436056451158947
98755.417978098543244
98734.103709639675799
98714.177472188675893
98697.370700036757626
98684.267212974882568
98674.490173972866614
98667.259023884063936
98661.785211049660575
98657.484857139294036
98653.944155161443632
98650.818296153927804
98647.77700266087777
98644.663109968314529
98641.612325060370495
98639.119966577840387
98638.023307766619837
98639.261038733413443
98643.593693592047202
98651.422850385977654
98662.529579916910734
98676.065331685473211
98690.678795967862243
98704.769392941321712
98716.735939943231642
98725.337891617484274
98729.775352961863973
98729.723617907395237
98725.460115024005063
98717.93924276746111
98708.658156410703668
98699.408725014669471
98691.989060658859671
98687.738881592216785
98687.141576738329604
98689.684175337257329
98693.947458841154003
98697.901860870319069
98699.479677878349321
98697.156357704880065
98690.261629941669526
98679.096271337984945
98664.780296303433715
98649.071007770166034
98633.930185196135426
98621.041432758764131
98611.518125631075236
98605.794321913301246
98603.66485114293755
98604.398610407239175
98607.039579248244991
98610.599820202260162
98614.210916772863129
98617.126869324667496
98618.649658268113853
98618.180265596776735
98615.163167606908246
98609.032054804527434
98599.310460794251412
98585.922640755641623
98569.470540706664906
98551.173070564793306
98532.548237004884868
98515.108773115294753
98500.015601927691023
98487.744843348787981
98477.877842171583325
98469.276656862697564
98460.597728767650551
98450.870697454258334
98439.868718357247417
98428.201886318711331
98417.043644704710459
98407.660537682691938
98400.996080600103596
98397.332014459563652
98396.314377557035186
98397.328297734959051
98399.905174455867382
98403.910283026751131
98409.54728506707761
98417.168991526428727
98426.943557381993742
98438.489692822447978
98450.616671841300558
98461.507091026636772
98469.195082199483295
98472.060823952575447
98469.277197700706893
98461.108421154873213
98449.018997160936124
98435.424029422341846
98423.163737366980058
98414.866507930768421
98412.409945208331919
98416.584774528237176
98426.921940113068558
98441.68678663589526
98458.412608442187775
98474.653761508190655
98488.383896632964024
98498.147213092539459
98503.350456439235131
98504.337987868348137
98501.974286622236832
98497.184548728837399
98490.627611518313643
98482.578602079447592
98473.1191076154646
98462.34849166906497
98450.567372518009506
98438.409727327947621
98426.868035076127853
98417.153527724134619
98410.342046807578299
98407.227639847595128
98408.244299123922247
98413.2801272028737
98421.672925945473253
98432.390183962255833
98444.466493548738072
98457.232279355812352
98470.361133966478519
98483.788953289971687
98497.54138294182485
98511.633298183005536
98526.004880012740614
98540.479501716879895
98554.724090781863197
98568.260116993784322
98580.588270145177376
98591.433181235479424
98911.771858168940526
98975.992049790860619
98843.630008675376303
98766.250840801527374
98909.017321343315416
98980.564053549678647
98939.654795062248013
98785.663887211165274
98584.826230070058955
98515.358847258306923
98637.884530277879094
98791.009774941645446
98772.682855167920934
98636.733897338126553
98596.850355105285416
98694.287537414391409
98787.863816771816346
98796.682407688931562
98763.952023797915899
98744.419591565281735
98745.39275219560659
98752.365763643058017
98742.527048900432419
98721.910908398538595
98723.538665582091198
98743.665401352234767
98754.529603993010824
98738.821259493459365
98702.452580203884281
98665.302964935908676
98654.091573435754981
98680.677714279154316
98725.195199362700805
98746.393077498374623
98724.545758648207993
98671.311945306006237
98615.541041946213227
98584.452064862765837
98584.181715289523709
98598.292999895827961
98614.840345608972711
98641.346253066280042
98682.708669554136577
98713.055355233052978
98711.637946410744917
98685.570951322311885
98653.417185524580418
98637.441063315694919
98651.016101653876831
98676.198817162046907
98678.289373185834847
98650.855748216592474
98619.736619469040306
98609.827824839157984
98613.413788271485828
98618.894069093497819
98620.421639719774248
98616.449066024841159
98606.234430972952396
98590.3647791644471
98577.859524063678691
98567.97056502540363
98553.834760966841714
98542.913089550842415
98552.35047983880213
98577.971894667236484
98590.121117102709832
98569.526122702722205
98533.810391897612135
98510.891268585270154
98506.382755906844977
98513.140366203224403
98523.771667532098945
98536.271774511376861
98543.71192416230042
98537.727468911412871
98514.903902296311571
98484.201266549658612
98450.174739830283215
98419.108980014469125
98395.708259758815984
98390.653557619982166
98407.40776499256026
98435.154551419473137
98452.174763807139243
98443.471305425075116
98415.929973940728814
98393.308943626223481
98396.223272558403551
98428.376454639641452
98466.926777570333797
98483.769095138442935
98470.335902624457958
98444.438778444455238
98433.377890231829952
98443.250227994096349
98456.84358633919328
98453.359326252422761
98429.42970673723903
98397.363398348054034
98371.355361572728725
98356.538890691488632
98352.989726576823159
98358.891010431223549
98372.711425959176267
98389.038050866874983
98398.640962633871823
98395.188443115112022
98380.317124964989489
98364.631776208872907
98357.034808510492439
98356.084556885572965
98352.55927024364064
98340.378344000855577
98321.131255622138269
98301.257605348961079
98285.326660414910293
98274.427093674632488
98272.832453686904046
98286.525992620459874
98314.763412467145827
98345.276053145164042
98361.31392228018376
98355.785502075901604
98336.106153771790559
98317.089203658513725
98308.077773932483979
98309.051723018914345
98314.392391148925526
98319.999226186235319
98326.16759158334753
98335.078700959624257
98347.778886369051179
98362.460097543968004
98374.975598159857327
98380.899321201766725
98380.35570185292454
98379.018105116629158
98384.513861613173503
98399.997196480791899
98421.526203675704892
98441.344147945565055
98455.817431088609737
98468.672388463484822
98485.178346579821664
98505.129885974442004
98521.894544833383407
98528.675074300277629
98524.764623648254201
98515.717740793013945
98508.794613091275096
98508.17167179925309
98514.048068769887323
98524.598880899502547
98537.227429724662215
98549.414470528718084
98559.053473165084142
98565.378433063437114
98568.910412075681961
98571.561544313008199
98575.720312373858178
98582.787450228570378
98592.942812028690241
98605.163479198294226
98617.445653029659297
98628.553170417959336
98639.288775743611041
98651.532068619548227
98666.286645207932452
98682.127747824401013
98694.857346360091469
98699.883825216034893
98695.364175442897249
98684.273249922087416
98673.747520365126547
98670.700922783944407
98677.942777936637867
98692.689241568339639
98709.436831354541937
98724.094532324030297
98736.254183778743027
98748.100384810997639
98761.3824579014763
98775.296640644897707
98786.777433218783699
98792.675937251231517
98791.952264161460334
98786.217613574466668
98778.599258868081961
98575.401543118976406
98571.954008974731551
98567.14083807526913
98556.83586649443896
98541.158189533030964
98524.328268669676618
98511.741453068185365
98506.775917711478542
98509.098139749083202
98515.670217951425002
98523.360873544661445
98530.584886103461031
98537.0518676599022
98542.723105815457529
98547.319647307624109
98550.902374999335734
98554.440996938283206
98559.357802337472094
98566.403097968592192
98574.96839263747097
98583.623479130590567
98591.675976920261746
98600.148567445910885
98611.209436992794508
98625.977994777815184
98642.399355057801586
98655.402657980230288
98659.489853616672917
98652.192739782796707
98636.277255663851975
98618.946192321760464
98608.289832302674768
98609.065188239779673
98620.544116904115072
98637.359121668923763
98652.77260929858312
98662.490410858648829
98666.726369390758919
98669.257626990642166
98674.781918986773235
98685.885163119746721
98701.845997872806038
98719.161552092395141
98733.657505370749277
98742.482934485175065
98745.270260366887669
98744.128799282480031
98742.123153077045572
98741.792620329099009
98744.069226350446115
98748.074698773882119
98751.979404689656803
98754.065703172105714
98753.310150630655698
98749.605279660681845
98743.523866822913988
98735.939806808106368
98727.936041686232784
98720.883506480109645
98716.590480490485788
98717.032282110114465
98723.936864278526627
98738.240916276874486
98759.999274639965734
98787.856319455080666
98819.147057942594984
98850.255599444208201
98877.210194304017932
98896.838516603180324
98907.740857974058599
98910.709455846590572
98908.230461716331774
98903.400509688202874
98898.705344113113824
98895.22842910894542
98892.643714340636507
98889.812155712410458
98885.66211435207515
98879.790976357617183
98872.654814641253324
98865.302109282521997
98859.098626411607256
98855.063445830266573
98853.418706415279303
98853.276279980826075
98853.07212573599827
98850.894591485266574
98845.693728179147001
98837.511155696556671
98828.036691494373372
98820.130590768865659
98816.912148171846638
98820.376886447280413
98830.453539752401412
98845.018096107291058
98860.881879911146825
98875.112638727849117
98885.97690545032674
98893.076628852257272
98896.877448075669236
98897.68646729120519
98894.979470691236202
98887.498667687992565
98874.265206376250717
98855.588822367586545
98833.587097261872259
98811.746149217986385
98793.719592022753204
98781.625489883328555
98775.373695890084491
98772.814133907304495
98771.016445716988528
98767.721008564840304
98762.662164888984989
98757.788801455200883
98755.519354745993041
98757.661388543972862
98764.169904210692039
98772.848652719549136
98780.018218064622488
98781.905146728313412
98776.063160422141664
98762.157565876143053
98741.952191865522764
98718.561991209426196
98695.409197951303213
98675.214749139544438
98659.450115968269529
98648.250077693985077
98640.728710908049834
98635.578604704176541
98631.667139396915445
98628.361127043724991
98625.44921608956065
98622.934550007601501
98620.738939852744807
98618.781625236937543
98617.047827007816522
98615.7579526687623
98615.366240267714602
98616.447630678114365
98619.473621234341408
98624.837344989806297
98632.719707375785219
98642.983224334413535
98655.008179122436559
98667.671182617661543
98679.478334523373633
98688.866598759603221
98694.666203307016985
98696.261929204309126
98693.877659532096004
98688.582533046341268
98682.063159131779685
98676.153968679631362
98672.418282829152304
98671.713589403079823
98673.829180475891917
98677.628357460780535
98681.412076163731399
98683.273757910428685
98681.542094628486666
98675.257491075302823
98664.414757446487783
98649.981293028162327
98633.668751821227488
98617.60086273921479
98603.853600923510385
98593.990722258429741
98588.79403610592999
98588.163550746437977
98591.265139241178986
98596.796549593142117
98603.335849277602392
98609.683383104449604
98615.076460364929517
98619.065724125757697
98621.260498544186703
98621.181729319578153
98618.290850220699213
98612.07146624159941
98602.14294042137044
98588.512171825525002
98571.892036992969224
98553.734241016994929
98535.870948868658161
98520.018469162125257
98507.331428608376882
98498.08472277407418
98491.61944723581837
98486.516167124224012
98481.125359028519597
98474.244210813078098
98465.557183140190318
98455.659724813769571
98445.706503855428309
98436.921245881851064
98430.168230029885308
98425.692002566851443
98423.095075075761997
98421.646117599884747
98420.778368907107506
98420.46279649650387
98421.201315507860272
98423.696489415422548
98428.529516988040996
98435.829332178953337
98444.940585081771133
98454.415410075744148
98462.360284167938516
98466.96329063444864
98467.068931864720071
98462.553867451730184
98454.416039333620574
98444.639236379924114
98435.725597100317827
98430.128991813558969
98429.64332709874725
98435.009055042624823
98445.850336687275558
98460.746518533400376
98477.471032857341925
98493.591799845075002
98507.07377161642944
98516.563334147285786
98521.422778626671061
98521.832660441548796
98518.571766353750718
98512.583726465207292
98504.640307861482142
98495.245955099177081
98484.724704583961284
98473.415698904180317
98461.770104217037442
98450.45430939081416
98440.310727027870598
98432.294580526882783
98427.208335507428274
98425.384363600402139
98426.720066674737609
98430.745847053054604
98436.839220398178441
98444.472723296668846
98453.284272369812243
98463.173263974895235
98474.384975618246244
98487.315774324219092
98502.102742216709885
98518.493414267111802
98535.787932643375825
98552.989483279074193
98569.131252709237742
98583.47093819481961
98595.694222653008183
98605.932971883186838
98884.540550052130129
99048.673706679895986
98866.118543419725029
98722.636721404996933
98901.662901999283349
99040.898143014215748
98990.505905846075621
98859.805436956172343
98691.460682934819488
98601.375532287114765
98672.360412267822539
98811.315054553648224
98812.995477362550446
98677.536818254549871
98627.533421270578401
98733.882169286662247
98814.92942174008931
98795.884523796470603
98795.064873359573539
98830.065530868188944
98823.892904690641444
98781.88826499946299
98748.853624356081127
98742.590497642566334
98752.322575657308334
98772.139094122205279
98790.878187019581674
98786.625843854388222
98753.913394987772335
98715.84390773200721
98704.672683884316939
98726.599386583926389
98755.673699254679377
98758.287663654642529
98719.974008819481242
98662.9627819153975
98623.877014397090534
98627.581938780407654
98655.835476806547376
98677.578218766648206
98691.126322122014244
98712.289689857250778
98747.730110029180651
98768.750964843813563
98750.204245703323977
98699.25281738229387
98652.884087602360523
98648.825122823560378
98683.314868558183662
98716.125676210955135
98711.336586272751447
98674.882722802474746
98645.853654295788147
98649.529350238197367
98660.655959679366788
98658.287449277486303
98650.887441457845853
98654.496940301454742
98668.561269313460798
98673.037531192720053
98666.201087528315838
98643.075335444125813
98615.686588544456754
98595.291943252217607
98593.206059650256066
98607.400010308629135
98615.628722346940776
98601.599848175101215
98573.534371817528154
98551.041394718515221
98544.036382473015692
98548.30741998902522
98555.925397192389937
98554.575393030099804
98537.323134834790835
98508.020311800049967
98481.184728147272835
98468.186755535629345
98464.890024283595267
98460.357668990836828
98452.219077919493429
98451.270514974428806
98467.05974815285299
98494.270237122575054
98516.20233884335903
98518.620233378911507
98499.166155966071528
98472.535477731609717
98458.459214268717915
98467.782822372435476
98489.638884379543015
98499.287916862987913
98484.895244748520781
98458.778020410463796
98441.636686782992911
98441.568629259883892
98448.126237430042238
98446.5451327017945
98432.070647823638865
98410.315529681334738
98388.286784901792998
98370.8926021210209
98360.988379260976217
98361.384644501114963
98368.866630740973051
98376.858835528473719
98377.66313036181964
98367.473116766734165
98350.043461417270009
98334.516400724722189
98329.884361702759634
98335.23231757353642
98339.220756527516642
98331.811827560813981
98313.554761453546234
98290.667726349885925
98271.041539388636011
98257.124083650458488
98250.423298730456736
98255.888081903700368
98274.514650125493063
98297.436718343145913
98311.401181366018136
98309.185999749504845
98296.414354514025035
98283.594178936429671
98277.162933027750114
98277.232728302493342
98282.07500572441495
98291.087808077965747
98304.85326747293584
98322.436124580955948
98340.363601542005199
98354.630396229491453
98361.163168600323843
98358.045760637789499
98348.487667683919426
98340.330445874846191
98341.631707680498948
98356.032792742262245
98380.46669847794692
98407.667117786695599
98432.835773799874005
98456.199970635847421
98478.707100115643698
98497.182155116388458
98505.338075694351573
98499.645639443813707
98483.279516967581003
98464.894005611873581
98452.896710626766435
98452.051336244636332
98463.366249323313241
98484.085880504382658
98508.294361530031892
98528.920377075584838
98540.20364951180818
98541.517554095902597
98537.149792067386443
98533.814860893180594
98536.29271300448454
98545.746793681144482
98559.978860079587321
98575.181662274553673
98589.575327934144298
98604.73276996135246
98623.857753230025992
98649.135751473004348
98679.276455654748133
98708.466125490012928
98727.719691566788242
98729.100171182464692
98711.462179602996912
98682.673827206439455
98655.791105866868747
98642.321911002640263
98647.075663834504667
98666.55047505107359
98692.603595175984083
98718.052448365458986
98740.262053737911629
98759.712761045549996
98776.05723401826981
98786.602134947577724
98788.498352845810587
98781.476606196243665
98768.951838797351229
98756.361200138504501
98748.511380672789528
98544.126502754181274
98536.327018110678182
98532.439869841691689
98527.782801147695864
98519.790538112807553
98509.68633149980451
98501.234549399494426
98498.111012601337279
98501.745493351816549
98510.84791464295995
98522.681587407991174
98534.492474701066385
98544.18875804397976
98550.562710157551919
98553.36770991551748
98553.560040796917747
98553.308928943341016
98555.08351556956768
98560.265777043430717
98568.377898413746152
98577.75605654316314
98587.218160571181215
98597.07652476237854
98608.586007730016718
98622.242647038845462
98636.20589872081473
98646.502251142679597
98649.182543731541955
98642.998963126607123
98630.716166914135101
98618.333956653252244
98612.210462130184169
98615.582986398017965
98627.070497544642421
98641.761500000793603
98654.207846849647467
98661.434686007487471
98664.212503424452734
98666.337961684883339
98672.177128693030681
98684.332634003629209
98702.029938858308014
98721.393409066498862
98737.153589100344107
98745.447212424391182
98745.38120384440117
98739.280512273398926
98731.341721403339761
98725.59892152530665
98724.45125991020177
98728.027980033948552
98734.586111774086021
98741.63725268530834
98747.097775994567201
98749.861841894526151
98749.759043926227605
98747.252677823649719
98743.1991075512924
98738.888718652247917
98736.130873664180399
98737.120324924748274
98743.977670655818656
98758.130461828346597
98779.635043401169241
98806.816621750345803
98836.229377073890646
98863.733117913783644
98885.769488255842589
98900.364194132998819
98907.52753459570522
98908.92241206127801
98907.063185322302161
98904.304248127256869
98902.020364401585539
98900.29545859216887
98898.248890672621201
98894.773378147059702
98889.262237439572345
98881.823661462593009
98873.236616480062366
98864.65376139304135
98857.332930788455997
98852.209432012983598
98849.470293650592794
98848.533743588370271
98848.218713879439747
98847.145571298475261
98844.32762966772134
98839.642310144743533
98834.264639532775618
98830.400400735525182
98830.509643110592151
98835.766863880053279
98845.886805708825705
98859.303460864728549
98873.538108715161798
98886.244848849892151
98896.084661331085954
98902.86769130785251
98906.866043732341495
98908.024917729591834
98905.289681553360424
98897.165786529934849
98882.608239237582893
98862.231509363438818
98838.583356939867372
98815.557800880895229
98796.837478187459055
98784.500931803006097
98777.97120461963641
98774.587398618197767
98771.110649575231946
98765.438302286856924
98757.650243834752473
98749.803075246221852
98744.689458397813723
98744.193282924810774
98748.033338681707392
98753.609925549986656
98756.966703414203948
98754.29536611821095
98743.466153900561039
98724.810342868455336
98700.885607261807309
98675.447652253351407
98652.150411870607059
98633.566325663094176
98620.625367668748368
98612.682277927538962
98608.13672809410491
98605.145544953411445
98602.407561959393206
98599.48842838377459
98596.637947155846632
98594.408517016912811
98593.160659773973748
98592.864871138619492
98593.197748878374114
98593.81234318423958
98594.523321505752392
98595.38616937038023
98596.709316996610141
98599.001186411784147
98602.955352929289802
98609.101622198504629
98617.526026258274214
98627.638401158881607
98638.250257881678408
98647.832881057503982
98655.041273114213254
98659.016828075720696
98659.66349040636851
98657.761305512103718
98654.764801140190684
98652.289295034730458
98651.560649753329926
98653.077702311042231
98656.410939250039519
98660.307157101298799
98663.161054036449059
98663.349734398667351
98659.520439546526177
98650.9677990765922
98637.923597965869703
98621.607852230474236
98604.006593289421289
98587.494250166913844
98574.349455943927751
98566.239835914471769
98563.908710605843225
98567.012777081938111
98574.286692233508802
98583.932353893091204
98594.063346018156153
98603.146058154190541
98610.268209931396996
98615.13738009527151
98617.696930926220375
98617.810286880558124
98615.179601810814347
98609.439692943240516
98600.342513640905963
98587.984496866934933
98573.056771399409627
98556.959282629599329
98541.490208229268319
98528.345946644345531
98518.623877306599752
98512.512313969331444
98509.294773117930163
98507.598553706426173
98505.839058951038169
98502.687474804202793
98497.534431735723047
98490.612607168513932
98482.749129649921088
98474.899155128732673
98467.739318686290062
98461.506261181435548
98455.986488710521371
98450.759083130469662
98445.506850112709799
98440.315016613865737
98435.851356147701154
98433.099013828235911
98432.960003273648908
98435.885822260766872
98441.644642919840408
98449.274732867779676
98457.222208911785856
98463.727514359401539
98467.360642424522666
98467.505141361587448
98464.558793403994059
98459.845812961648335
98455.288555177787202
98452.943229581913329
98454.442208186970674
98460.513246734888526
98470.800432875475963
98484.069247532257577
98498.553598000566126
98512.299221849170863
98523.637804217505618
98531.514305506891105
98535.476306493990705
98535.602587662113365
98532.414817804499762
98526.631086924797273
98518.921858505651471
98509.807858670144924
98499.726060875531402
98489.124989815420122
98478.577058725684765
98468.822180789429694
98460.69282362049853
98454.879918367529172
98451.782586764136795
98451.388921439560363
98453.243600676578353
98456.586876893983572
98460.746818520216038
98465.429495536838658
98470.801821995934006
98477.450703497874201
98486.222633011057042
98497.856165428485838
98512.641001718351617
98530.140129323888686
98549.178223178299959
98568.136248283699388
98585.413669339686749
98599.923597791857901
98611.347470414460986
98620.213096793391742
98627.566688157690805
98878.943894433745299
99153.169005036339513
99034.890732873172965
98882.79277338324755
98972.790098218756611
99010.713710659387289
98930.191500307657407
98816.366986206136062