/*--------------------------------*- C++ -*----------------------------------*\
  =========                 |
  \\      /  F ield         | OpenFOAM: The Open Source CFD Toolbox
   \\    /   O peration     | Website:  https://openfoam.org
    \\  /    A nd           | Version:  12
     \\/     M anipulation  |
\*---------------------------------------------------------------------------*/
FoamFile
{
    format      ascii;
    class       volScalarField;
    location    "0.00519";
    object      pPrime2Mean;
}
// * * * * * * * * * * * * * * * * * * * * * * * * * * * * * * * * * * * * * //

dimensions      [2 -2 -4 0 0 0 0];

internalField   nonuniform List<scalar> 
75962
(
1092360.6118831634521
1072419.9469165802002
1063513.7182750701904
1057016.299560546875
1051673.9250564575195
1046800.0213832855225
1042060.2907314300537
1037324.4774723052979
1032483.1543788909912
1027582.4486808776855
1022710.2120380401611
1017957.4563064575195
1013324.8063735961914
1008743.2513065338135
1004218.5920734405518
999805.39050102233887
995506.35568237304688
991306.30856513977051
987172.6099681854248
983068.54717636108398
978997.15567207336426
975000.37522506713867
971149.98558616638184
967478.51846122741699
964020.32769584655762
960806.50949478149414
957853.20012855529785
955179.06039428710938
952791.206298828125
950657.12522506713867
948738.11956787109375
947008.07080078125
945437.3916187286377
943973.62027549743652
942564.06703948974609
941180.71729469299316
939817.04121208190918
938471.43343734741211
937138.06751441955566
935797.22725677490234
934432.7858943939209
933036.86875152587891
931596.01759338378906
930086.38767051696777
928483.83857536315918
926769.55667686462402
924936.11505699157715
922977.90514945983887
920899.04154396057129
918695.05242538452148
916357.19853973388672
913880.80424499511719
911259.94046592712402
908491.69586753845215
905598.9413948059082
902617.03863906860352
899578.6790599822998
896508.53842926025391
893422.54758071899414
890342.77525520324707
887305.61942672729492
884353.09894943237305
881508.52335739135742
878770.26185607910156
876124.64395713806152
873558.08849143981934
871057.21932411193848
868604.97844505310059
866186.29283714294434
863790.63769721984863
861415.49041938781738
859051.16640663146973
856677.633544921875
854278.5152587890625
851853.05951881408691
849405.34165573120117
846930.65352821350098
844418.17042350769043
841858.58274078369141
839242.11447143554688
836566.25239753723145
833846.92903518676758
831119.61661720275879
828415.57583618164062
825743.30769157409668
823094.79154968261719
820454.28421211242676
817815.42851638793945
815197.00659370422363
812633.03429222106934
810148.17497825622559
807741.22895431518555
805395.99214172363281
803098.54515266418457
800852.95607566833496
798679.24648857116699
796588.23846435546875
794567.13566207885742
792584.90787124633789
790607.853759765625
788616.62755012512207
786614.24011039733887
784617.33310317993164
782639.38794326782227
780679.6996955871582
778729.61496925354004
776778.90083694458008
774812.21207618713379
772808.89742279052734
770750.82207679748535
768630.04948234558105
766451.78292655944824
764226.80680656433105
761960.33579254150391
759648.17739295959473
757286.0840015411377
754878.17182731628418
752431.50351524353027
749945.91183853149414
747411.5175666809082
744815.82800102233887
742150.89814186096191
739418.99629020690918
736630.68167304992676
733796.50318908691406
730924.64853668212891
728027.10785293579102
725119.31117248535156
722215.79754829406738
719332.06609916687012
716486.11211013793945
713695.42397880554199
710972.29727363586426
708320.06948661804199
705734.29331207275391
703209.90365409851074
700745.69289970397949
698343.50015068054199
696006.68458366394043
693737.47322082519531
691533.41501998901367
689386.43548774719238
687284.79161643981934
685213.45222473144531
683157.71342849731445
681109.94282913208008
679071.00032043457031
677043.80619049072266
675024.1297435760498
672996.46101951599121
670938.09868049621582
668828.01142883300781
666655.38216018676758
664422.63993263244629
662140.58122634887695
659821.04589653015137
657473.90588569641113
655107.29901313781738
652728.13979911804199
650338.11761856079102
647926.16782569885254
645471.49571228027344
642959.91855049133301
640396.57143211364746
637800.9365291595459
635190.25807952880859
632569.86816787719727
629936.40743446350098
627290.13038444519043
624641.97792434692383
622006.98072052001953
619392.80196571350098
616799.40348243713379
614227.37884330749512
611680.55409812927246
609162.45301818847656
606675.22383880615234
604221.04385757446289
601801.21258735656738
599416.02344512939453
597066.98899078369141
594759.14650726318359
592501.27279663085938
590302.01010322570801
588163.74685859680176
586079.37604141235352
584036.76724052429199
582027.24716758728027
510973.78574752807617
509233.63363838195801
507486.25527572631836
505729.7671012878418
503963.10072708129883
502187.81083297729492
500406.31566619873047
498618.26583671569824
496820.60956764221191
495011.65784645080566
493194.00099754333496
491372.16567039489746
489549.00546455383301
487724.6961555480957
485897.69159126281738
484064.9137077331543
482221.82513999938965
480364.64883041381836
478493.54730415344238
476613.53496742248535
474732.27775192260742
472855.93882179260254
470985.08713531494141
469113.44319915771484
467231.79891395568848
465335.19939994812012
463426.7708683013916
461514.24825859069824
459604.03523445129395
457699.37618064880371
455803.19166374206543
453920.32089996337891
452057.44475555419922
450223.20370674133301
448428.33398056030273
446683.31602668762207
444993.74258041381836
443357.03256416320801
441762.25703620910645
440193.75095558166504
438637.51090049743652
437086.90343475341797
435544.13713073730469
434016.79109573364258
432512.44157409667969
431034.62797164916992
429581.80943489074707
428149.66625213623047
426735.33063125610352
425340.32585716247559
423969.2513256072998
422625.86519813537598
421310.8883171081543
420022.62675285339355
418758.1971607208252
417513.14065361022949
416280.63455009460449
415052.9162540435791
413824.52763175964355
412594.67230987548828
411366.16547203063965
410141.41288375854492
408918.59429740905762
407690.76109313964844
406448.67621231079102
405185.26112365722656
403898.42502975463867
402590.52606201171875
401265.1579761505127
399924.65558815002441
398570.09217071533203
397201.56321144104004
395817.26102447509766
394413.06809043884277
392984.74748420715332
391531.68428421020508
390058.32653427124023
388571.24100303649902
387074.4312572479248
385567.6723518371582
384048.69564247131348
382515.40598106384277
380965.2891788482666
379394.04484748840332
377796.56433868408203
376170.06054878234863
374516.16502571105957
372840.40902519226074
371150.2840461730957
369452.92088508605957
367753.08876609802246
366052.35940361022949
364349.81388854980469
362643.71199798583984
360933.03266525268555
359218.27016830444336
357500.82732009887695
355782.10100746154785
354063.98899078369141
352350.86334800720215
350650.28978729248047
348970.67210960388184
347318.04552459716797
345694.79691505432129
344100.1353759765625
342530.71040153503418
340981.69362449645996
339448.58625411987305
337928.36965942382812
336418.86183547973633
334917.65562057495117
333423.20418739318848
331937.21235084533691
330464.99283790588379
329012.04603576660156
327579.92311096191406
326165.12625503540039
324762.12476348876953
323368.30450439453125
321986.67487144470215
320623.5851001739502
319283.32426834106445
317964.72832298278809
316662.39467430114746
315370.63136672973633
314086.07234191894531
312807.12014579772949
311531.96695518493652
310257.97500038146973
308983.05726623535156
307707.52387619018555
306433.95024871826172
305164.765869140625
303899.84504508972168
302635.83761215209961
301367.33998107910156
300088.42580413818359
298793.45233154296875
297477.14095306396484
296135.09501457214355
294765.43937110900879
293370.52983474731445
291957.48368644714355
290536.20757675170898
289115.58319854736328
287699.7083854675293
286286.52414321899414
284869.81456565856934
283442.82354736328125
282000.58098602294922
280540.08086967468262
279059.26230049133301
277556.86454582214355
276033.42275238037109
274491.95224189758301
272937.04720115661621
271372.91955375671387
269802.38739395141602
268227.47018432617188
266650.78574180603027
265076.4473762512207
263509.76795768737793
261955.87416458129883
260417.9551887512207
258896.27761077880859
257388.91348838806152
255893.7371826171875
254410.24449157714844
252939.85165023803711
251484.69659996032715
250046.34487342834473
248625.67524147033691
247223.68049812316895
245842.06757354736328
244483.19933319091797
243149.60607719421387
241843.44265365600586
240565.93798637390137
239317.39780426025391
238098.14245986938477
236909.71435546875
235754.76129913330078
234634.98044204711914
233548.7016773223877
232490.15581512451172
231451.25403594970703
230424.73495864868164
229406.75801849365234
228397.51824188232422
227399.74374389648438
226416.03804969787598
225446.79455375671387
224490.06004524230957
223543.01608085632324
222603.59164619445801
221670.90068817138672
220744.72550201416016
219825.15176582336426
218912.71714210510254
218008.49056434631348
217113.56722831726074
216228.36696434020996
215352.32660675048828
214483.89358711242676
213620.55646514892578
212758.89653968811035
211894.95371627807617
211024.9656925201416
210145.84452629089355
209254.79099464416504
208348.45600318908691
207423.06084823608398
206475.9238166809082
205507.36185073852539
204520.94792747497559
203521.44762229919434
202511.91914939880371
201492.26848411560059
200460.21196556091309
199413.68704223632812
198352.78481864929199
197280.24363327026367
196200.90952682495117
195120.94771385192871
194047.08018684387207
192985.61700630187988
191941.38290214538574
190916.74876403808594
189911.13699531555176
188921.21657752990723
187942.15431594848633
186969.80006408691406
186002.92264747619629
185044.01856422424316
184097.94266700744629
183169.40618705749512
182261.24819374084473
181374.56647682189941
180510.08755874633789
179669.1636791229248
178853.59802627563477
178064.97260284423828
177304.56311798095703
176574.04427719116211
175876.14942359924316
175214.29214286804199
174591.57351875305176
174010.12684631347656
173471.30188179016113
172976.20146751403809
172525.75834083557129
172120.12756156921387
171758.06987571716309
171436.71553993225098
1115025.6402778625488
1087494.9162654876709
1074803.0742568969727
1065357.9634876251221
1058047.28391456604
1051990.6554355621338
1046495.0047359466553
1041251.6308326721191
1036053.6058807373047
1030765.0421810150146
1025364.041877746582
1019937.5969295501709
1014589.7048301696777
1009403.1001224517822
1004407.0795211791992
999654.87923622131348
995142.34057426452637
990842.60636901855469
986760.83968544006348
982850.07853698730469
979056.01060676574707
975357.83086204528809
971763.97438812255859
968277.57099914550781
964902.73244476318359
961673.41195297241211
958625.89854049682617
955791.9204044342041
953212.04798698425293
950901.01501655578613
948849.09613227844238
947035.37159729003906
945428.31123733520508
943983.11539077758789
942639.24005317687988
941355.83748817443848
940104.2385425567627
938845.44749069213867
937549.30227661132812
936196.80425453186035
934768.37715148925781
933256.26216506958008
931653.65944290161133
929958.35300636291504
928164.55036354064941
926266.89869689941406
924261.1384334564209
922145.85158729553223
919923.72912979125977
917596.07921981811523
915159.54223442077637
912606.74009704589844
909939.11361885070801
907158.47159004211426
904273.28684234619141
901301.57473182678223
898263.81642150878906
895181.52057456970215
892079.91178512573242
888993.46137809753418
885969.42318153381348
883054.56656074523926
880273.66449546813965
877622.91507148742676
875083.49821281433105
872632.23380851745605
870250.27835273742676
867917.30633163452148
865615.74469184875488
863332.08528518676758
861060.21277236938477
858788.30266571044922
856497.60051727294922
854177.94180297851562
851834.57660102844238
849473.76654434204102
847089.38851928710938
844663.41869163513184
842180.46225166320801
839632.87167167663574
837021.29383087158203
834365.47384071350098
831701.02526473999023
829055.90811347961426
826430.95890045166016
823813.27603340148926
821191.32915878295898
818567.91307067871094
815966.07211112976074
813416.50834465026855
810937.4652156829834
808525.19200325012207
806161.37075614929199
803829.86567497253418
801531.746337890625
799286.84075355529785
797111.4932918548584
794998.20406341552734
792920.29230690002441
790846.40215301513672
788754.48068428039551
786642.22630882263184
784525.91622161865234
782423.45595359802246
780343.03116226196289
778283.31315231323242
776235.53796195983887
774182.96953582763672
772103.78747749328613
769980.56059455871582
767807.44134140014648
765589.56143569946289
763336.04268264770508
761048.76825904846191
758721.51693153381348
756353.38409996032715
753953.52934265136719
751528.71463012695312
749070.59977912902832
746561.34556770324707
743985.5600757598877
741336.69468879699707
738616.97916984558105
735836.18463516235352
733005.55905723571777
730133.2158374786377
727227.28908348083496
724299.53407669067383
721364.17829704284668
718438.28973388671875
715544.27700805664062
712706.70072174072266
709942.98292541503906
707255.40291595458984
704635.03781700134277
702074.47428131103516
699573.70579719543457
697136.70403861999512
694767.08160400390625
692467.28179359436035
690237.1548023223877
688072.82390975952148
685966.0495433807373
683900.11819267272949
681852.71585464477539
679809.34170150756836
677771.11464691162109
675746.28067016601562
673735.75116348266602
671725.68370056152344
669693.05841636657715
667616.61628150939941
665484.90672874450684
663299.04867935180664
661066.93806648254395
658796.43931198120117
656495.38825988769531
654173.94669532775879
651842.20158004760742
649502.18920707702637
647141.55183792114258
644740.55311965942383
642288.39210891723633
639790.96053123474121
637264.68609237670898
634724.53993225097656
632175.15094757080078
629611.19762992858887
627026.61506652832031
624425.18448638916016
621820.48655128479004
619226.4561595916748
616652.40153694152832
614104.84084129333496
611586.92052459716797
609095.83006858825684
606627.52243614196777
604183.12328147888184
601767.45269393920898
599384.59712409973145
597038.43662643432617
594734.00529861450195
592476.42862129211426
590269.81635284423828
588115.44503402709961
586009.3329906463623
583943.45206642150879
581912.00892639160156
579914.79484558105469
512822.70856094360352
511066.11466407775879
509303.71146774291992
507534.35255432128906
505755.13959693908691
503964.60075950622559
502165.53132438659668
500362.40682411193848
498555.49124145507812
496740.0599422454834
494912.17523002624512
493073.10235023498535
491227.90730476379395
489381.14859390258789
487534.67451667785645
485687.56772804260254
483836.26951217651367
481975.41769218444824
480100.7121524810791
478212.68340301513672
476317.58238220214844
474424.17283821105957
472538.74965476989746
470661.1245002746582
468783.9006290435791
466896.36340713500977
464991.59880638122559
463071.33837509155273
461143.45051193237305
459215.48718070983887
457292.06636047363281
455376.93722343444824
453474.6815357208252
451591.25153160095215
449735.79302787780762
447921.65439987182617
446162.2523021697998
444463.59705543518066
442820.10523223876953
441217.15317535400391
439637.64145088195801
438068.71104621887207
436505.96969795227051
434953.27933883666992
433418.64266777038574
431909.13406562805176
430427.69425201416016
428972.52148818969727
427539.00358772277832
426123.52000427246094
424726.36391830444336
423351.95551490783691
422006.81058502197266
420696.18860816955566
419421.57220649719238
418179.59155654907227
416962.62183952331543
415760.65032196044922
414564.08170318603516
413366.18774795532227
412164.07755470275879
410958.06131553649902
409749.60130882263184
408538.49795341491699
407320.69965362548828
406088.85642433166504
404835.81159782409668
403558.43054962158203
402258.81800651550293
400941.71338844299316
399611.07467460632324
398268.77741622924805
396915.2550048828125
395549.1298942565918
394165.81797218322754
392758.89958000183105
391324.92077827453613
389866.62821006774902
388390.27673721313477
386900.1566276550293
385396.46675300598145
383877.64387321472168
382342.27205657958984
380787.72683143615723
379208.74896621704102
377599.32840347290039
375956.64035797119141
374283.18451881408691
372585.76464653015137
370873.12129592895508
369153.3915958404541
367431.88728904724121
365709.44528007507324
363983.30157661437988
362250.51879119873047
360511.42214965820312
358769.78507614135742
357029.69168472290039
355292.76466178894043
353559.00259590148926
351830.43794631958008
350113.32443618774414
348416.5915641784668
346748.28254699707031
345112.87915802001953
343510.33555030822754
341936.78533744812012
340386.85047721862793
338856.54703330993652
337344.12471961975098
335848.01975631713867
334365.12770080566406
332892.04864311218262
331428.31696319580078
329977.62778663635254
328545.14173316955566
327133.3246021270752
325740.09311676025391
324361.04370307922363
322994.12353897094727
321642.32138252258301
320311.51263999938965
319005.20293045043945
317721.28098678588867
316453.52040481567383
315195.47213745117188
313942.78384017944336
312692.47225761413574
311441.33887672424316
310186.3139533996582
308926.59639549255371
307665.00453186035156
306406.54429054260254
305155.18821907043457
303911.02704048156738
302669.76520538330078
301424.22048377990723
300166.48497200012207
298889.65072059631348
297588.57844352722168
296260.15068817138672
294903.74282836914062
293522.20139503479004
292122.0235424041748
290711.76867485046387
289298.73394775390625
287885.9735164642334
286471.82755088806152
285052.11746025085449
283622.87714195251465
282181.40489387512207
280725.4289722442627
279252.27952766418457
277759.63086128234863
276247.22773742675781
274717.63457489013672
273174.96822357177734
271622.84087944030762
270063.56784439086914
268499.0675163269043
266932.02383613586426
265366.3548412322998
263806.73270797729492
262257.34491348266602
260720.58352851867676
259196.72148513793945
257684.90602493286133
256184.72106170654297
254696.93991470336914
253223.11953353881836
251764.6243839263916
250322.23389053344727
248896.60606575012207
247488.90647506713867
246100.85943603515625
244734.30303955078125
243390.96847152709961
242072.505126953125
240780.3382568359375
239515.5008602142334
238279.1296501159668
237073.1783561706543
235900.26040840148926
234762.10531806945801
233657.48239326477051
232581.38388442993164
231526.26383209228516
230484.7593879699707
229452.3234920501709
228428.4671459197998
227415.9523868560791
226418.29367828369141
225437.23971939086914
224471.83557319641113
223519.5454044342041
222578.07933616638184
221646.4061336517334
220724.51585960388184
219812.59915924072266
218910.61974906921387
218018.39594268798828
217135.7757511138916
216262.62811660766602
215398.68392562866211
214543.10580825805664
213693.73737525939941
212846.54178619384766
211996.13368225097656
211137.41098403930664
210266.88566017150879
209382.57335090637207
208482.73992729187012
207565.13237953186035
206627.89357757568359
205671.29707527160645
204698.34965705871582
203713.11014747619629
202717.81609916687012
201711.41990089416504
200690.68750953674316
199652.81599235534668
198597.73134231567383
197528.46361541748047
196449.95611953735352
195367.82676887512207
194288.0739574432373
193217.34078979492188
192162.51465797424316
191129.02893257141113
190118.39504051208496
189127.00354194641113
188147.74938774108887
187173.9417552947998
186202.88764762878418
185236.99543762207031
184281.91169166564941
183343.44097137451172
182425.56712532043457
181530.45106506347656
180659.50392150878906
179814.01909446716309
178994.83650398254395
178201.7681999206543
177433.99295806884766
176691.56170272827148
175976.7673168182373
175294.18069839477539
174649.11855888366699
174045.94748687744141
173487.50810813903809
172975.64213943481445
172511.76841163635254
172096.72918128967285
171729.8325023651123
171407.91399765014648
1085080.2029666900635
1070064.8050346374512
1063077.7810840606689
1056865.585205078125
1051347.3492755889893
1046290.698600769043
1041599.3290004730225
1037123.5609169006348
1032697.4176368713379
1028158.3151302337646
1023416.0469989776611
1018461.7969017028809
1013336.9352397918701
1008178.6399307250977
1003083.6339473724365
998172.65484619140625
993527.45362663269043
989166.40068054199219
985084.77706336975098
981251.7461986541748
977644.82824325561523
974220.60015106201172
970932.98437690734863
967767.08209991455078
964681.79385375976562
961677.60067939758301
958777.4273738861084
956004.68221282958984
953401.72413063049316
951014.76612854003906
948870.89801597595215
946970.55935478210449
945291.57207298278809
943784.21699142456055
942397.89821434020996
941101.35249137878418
939873.28009414672852
938677.39628791809082
937463.49208641052246
936179.46247291564941
934791.35671043395996
933285.96900749206543
931653.66080856323242
929892.20010757446289
928005.91044044494629
925993.58049964904785
923856.84054183959961
921608.5000171661377
919255.92621612548828
916796.43282508850098
914234.04082298278809
911575.63149642944336
908827.93843269348145
905999.86482238769531
903095.47276496887207
900117.1732120513916
897073.56288528442383
893981.86931800842285
890871.03217887878418
887787.06076240539551
884776.28355979919434
881877.43027114868164
879111.14994049072266
876477.58479881286621
873960.12721252441406
871537.29401779174805
869191.45706558227539
866907.29991912841797
864666.94497489929199
862452.78240203857422
860251.70191764831543
858049.08582878112793
855833.50141525268555
853600.17934989929199
851356.49923324584961
849109.83170318603516
846850.25756645202637
844558.38613700866699
842210.15623092651367
839790.68229103088379
837296.49350547790527
834747.73570442199707
832179.85024452209473
829614.43121910095215
827047.56228828430176
824464.99493980407715
821860.20701789855957
819247.24193000793457
816650.35166931152344
814092.13878440856934
811585.61792182922363
809130.57195091247559
806714.20541000366211
804323.09926605224609
801956.07984924316406
799628.6921329498291
797355.80799293518066
795133.80006980895996
792943.278076171875
790759.94849014282227
788563.5485897064209
786348.52695655822754
784127.68470001220703
781919.72725486755371
779735.17773056030273
777572.75800132751465
775423.63846015930176
773276.01056480407715
771116.93765830993652
768935.03221893310547
766722.7097053527832
764480.51388931274414
762214.17577171325684
759923.10050773620605
757602.12613296508789
755254.36130523681641
752891.27068710327148
750516.37249374389648
748112.45170021057129
745652.32986450195312
743117.99003028869629
740504.7978515625
737816.00856399536133
735059.79414939880371
732246.92473602294922
729386.88129425048828
726486.36067771911621
723552.92257881164551
720599.11037635803223
717645.28105354309082
714719.79377555847168
711853.38730812072754
709065.99808311462402
706357.07335662841797
703713.19806098937988
701123.96567726135254
698589.11845588684082
696114.20667266845703
693705.76162528991699
691369.25333786010742
689106.85512924194336
686917.03021812438965
684793.49242782592773
682719.22931098937988
680667.32746696472168
678617.5255184173584
676569.29405403137207
674533.6752815246582
672514.8698844909668
670501.36612701416016
668471.70589828491211
666405.9476490020752
664294.65990829467773
662139.50195503234863
659945.8895149230957
657718.77842712402344
655464.90231895446777
653193.75418853759766
650912.99630737304688
648622.09668731689453
646310.99638175964355
643967.51481819152832
641588.20828819274902
639179.7746639251709
636752.99698066711426
634316.04178619384766
631870.46993255615234
629409.45499801635742
626922.82709121704102
624408.39322090148926
621877.73432540893555
619348.87777519226074
616837.04873657226562
614350.15882682800293
611886.26021575927734
609435.95027732849121
606992.67777633666992
604560.59000015258789
602150.69755554199219
599772.89637565612793
597433.46627616882324
595134.84899520874023
592874.78707122802734
590649.56245613098145
588459.0725040435791
586305.72642517089844
584190.36679077148438
582112.78802299499512
580074.20383262634277
513021.27687454223633
511239.54763412475586
509452.76877593994141
507657.97861289978027
505850.37352180480957
504028.87900352478027
502199.24199867248535
500368.82954406738281
498538.71453285217285
496702.90745162963867
494855.01224899291992
492993.73024940490723
491122.60444831848145
489247.03247451782227
487371.22854614257812
485495.97023963928223
483617.97873306274414
481731.96007919311523
479834.20220375061035
477925.58745002746582
476012.23437881469727
474102.62000846862793
472203.1776008605957
470314.45503425598145
468429.65834426879883
466537.53296852111816
464629.77024459838867
462706.72687149047852
460775.46291160583496
458843.1906795501709
456914.45487785339355
454993.02407646179199
453083.43977928161621
451191.5388240814209
449326.66229438781738
447502.75600814819336
445733.32658195495605
444022.84952163696289
442363.17228317260742
440738.31301116943359
439133.07882308959961
437539.08925247192383
435955.75209808349609
434387.89332389831543
432842.3483943939209
431324.566650390625
429836.02351188659668
428374.22350692749023
426935.14027976989746
425516.26938629150391
424118.18012237548828
422744.76501274108887
421402.76863670349121
420099.5049877166748
418838.0787525177002
417614.04291343688965
416417.12810134887695
415236.27605819702148
414062.63625526428223
412889.19384002685547
411710.46756744384766
410524.02212715148926
409330.87158203125
408132.68154525756836
406927.6959114074707
405709.57857131958008
404470.65252685546875
403206.73691177368164
401919.29601860046387
400613.42685508728027
399294.08407783508301
397964.38644981384277
396625.8564510345459
395277.60437202453613
393914.47807502746582
392528.356201171875
391113.57627868652344
389671.03767776489258
388205.92605781555176
386722.14569091796875
385220.18340873718262
383699.31600761413574
382159.29746246337891
380598.6214427947998
379012.47055435180664
377394.76151657104492
375742.62319564819336
374058.79232978820801
372350.35509490966797
370625.98637962341309
368893.56109619140625
367157.97718048095703
365419.5507640838623
363674.96747970581055
361921.3495922088623
360160.37747383117676
358398.29414749145508
356641.59925651550293
354892.85677146911621
353150.99444389343262
351415.57956886291504
349690.46653938293457
347983.6446418762207
346304.05004501342773
344657.78911018371582
343045.76559257507324
341464.33922576904297
339908.62527275085449
338375.78645133972168
336865.21588516235352
335376.04543304443359
333905.22882461547852
332449.03294944763184
331006.29775428771973
329579.61102485656738
328173.23471260070801
326789.42067718505859
325426.59809303283691
324081.15010833740234
322751.32360458374023
321439.3205394744873
320149.07435989379883
318881.9249267578125
317634.62578392028809
316401.03162002563477
315175.08572959899902
313951.86036109924316
312726.61068916320801
311494.49831581115723
310252.45264625549316
309001.73006820678711
307748.1202278137207
306499.12115478515625
305259.88854026794434
304030.63400268554688
302806.37024116516113
301578.49003982543945
300337.41400909423828
299075.27728652954102
297787.24651527404785
296471.35986709594727
295128.13979911804199
293760.75641822814941
292375.09012985229492
290978.17770195007324
289575.3326530456543
288168.1256103515625
286754.93652534484863
285333.33026885986328
283901.91011810302734
282460.10726165771484
281006.66206169128418
279539.10628318786621
278055.15490531921387
276554.80004501342773
275040.77833938598633
273516.66600036621094
271984.71625137329102
270445.7203369140625
268900.47776031494141
267351.08354187011719
265800.95495414733887
264254.01315689086914
262713.64361763000488
261181.88349533081055
259659.33224296569824
258146.11211395263672
256642.91116714477539
255151.26577758789062
253672.97052192687988
252209.48170471191406
250761.84505081176758
249331.0632266998291
247918.33877754211426
246524.9197826385498
245151.7744312286377
243799.64706420898438
242469.36573219299316
241162.04788017272949
239879.17988777160645
238622.66653060913086
237394.9221363067627
236198.61865043640137
235035.60047149658203
233905.51556777954102
232804.97705459594727
231728.05381011962891
230668.12289047241211
229620.29238510131836
228583.10231781005859
227558.48213577270508
226549.83561515808105
225559.42384910583496
224586.95746231079102
223630.17397308349609
222686.76212120056152
221755.76106262207031
220837.27491760253906
219931.32437705993652
219037.08654022216797
218153.09533309936523
217278.05494117736816
216411.49029731750488
215553.71734619140625
214704.85585021972656
213863.34855079650879
213025.01273918151855
212183.77507209777832
211333.82792282104492
210471.62618827819824
209595.88877487182617
208705.87647247314453
207799.97428703308105
206876.32426071166992
205934.76635360717773
204977.71052551269531
204008.65155792236328
203029.3445930480957
202038.15038871765137
201030.96184539794922
200004.15084266662598
198957.26398277282715
197893.61499404907227
196818.60976028442383
195737.65299797058105
194655.70115852355957
193578.59557151794434
192514.05288505554199
191470.11429595947266
190451.33438682556152
189455.84218788146973
188476.2304630279541
187504.06692886352539
186534.85370635986328
185569.88961219787598
184614.44108581542969
183674.34238624572754
182753.66591453552246
181854.52033042907715
180978.19330596923828
180126.17917442321777
179299.95326614379883
178500.09014129638672
177726.08418655395508
176977.4683895111084
176255.48351287841797
175563.79938888549805
174907.45367431640625
174290.92576026916504
173716.99588966369629
173187.25558662414551
172703.4277172088623
172267.87033271789551
171882.43750190734863
171546.54938507080078
171255.98736381530762
1103545.9922924041748
1080152.3759708404541
1068851.1166973114014
1059802.4972515106201
1052107.059663772583
1045436.5224666595459
1039638.8393516540527
1034496.7823619842529