/*--------------------------------*- C++ -*----------------------------------*\
  =========                 |
  \\      /  F ield         | OpenFOAM: The Open Source CFD Toolbox
   \\    /   O peration     | Website:  https://openfoam.org
    \\  /    A nd           | Version:  12
     \\/     M anipulation  |
\*---------------------------------------------------------------------------*/
FoamFile
{
    format      ascii;
    class       volScalarField;
    location    "0.00519";
    object      rho_0;
}
// * * * * * * * * * * * * * * * * * * * * * * * * * * * * * * * * * * * * * //

dimensions      [1 -3 0 0 0 0 0];

internalField   nonuniform List<scalar> 
75962
(
1.1458899866486513819
1.1442819463881666042
1.1444034218932193081
1.1442984125731983092
1.1445307683363381557
1.1448607857276920097
1.1443475012462684948
1.1433985726108886194
1.1424661527514974324
1.1420130416741989254
1.1421825555822002762
1.142367670036348537
1.1418003968663681391
1.1410797417533027343
1.1412315816125970791
1.1419029090990122643
1.1422968670020436921
1.1420236404542467579
1.1410708392079236262
1.1402036721736648062
1.1401802191050627311
1.1408900374330837035
1.1416305287836019389
1.142039409713967002
1.1421528681092631974
1.1420033648684178029
1.1414646418385172577
1.1407081316118510284
1.1401318021368527234
1.1398975627250966802
1.1400207515826759064
1.1405156215541540909
1.1411802806785225073
1.1415297839214240128
1.1412231576459519466
1.1404027992607601583
1.1396011211021688236
1.1392322618925188049
1.1393898891161926556
1.1399044802188527115
1.1405143698314941236
1.1409316924259425008
1.1409716877421334225
1.1406814499962061316
1.1402817026104883347
1.1401558379470704274
1.1403774137196249772
1.1407722493465726199
1.141117898998428748
1.1411636409442340589
1.1406994098484215527
1.1398956334333358864
1.1392455460925454691
1.1390879317326445541
1.1394782264326492882
1.1401525008480786205
1.1407493631732508188
1.1408903266985717107
1.1404971512962671643
1.1399109727898930622
1.1395037654700310714
1.1394362713702501644
1.1394732285986977072
1.1395148562586052687
1.1395953729484291639
1.1396821764917925979
1.1396021520468033739
1.1393000219262146011
1.1389979321115313304
1.1389133339438199943
1.1390163111748321523
1.1391334025036621291
1.1391880019560560733
1.1392724403796758992
1.1395000293784192102
1.1398034812563837548
1.1400520501591653311
1.1401182830950107316
1.1398884863663316658
1.1393792654995005265
1.1387158052764376759
1.1381102536117897461
1.1377432408272387665
1.1376003384196211599
1.1374885727533605717
1.1372824965913175266
1.1370849040348676162
1.1371572093772752687
1.1376749201029021652
1.1385698215702582115
1.1395187286018342299
1.1401668545709131575
1.14035357889380351
1.140182112432043926
1.1398641789794110579
1.1395110571662725452
1.1390880834228744867
1.1385643943002654588
1.1380376946363670587
1.137693700529249563
1.1376705253648839999
1.1379494270536294476
1.1383985939084655392
1.138841852342693306
1.1391509523603173815
1.139246042681381299
1.1390953120553859446
1.1387126286056239444
1.1381877761866310284
1.137666757811010676
1.1372699466138387336
1.137046270283958771
1.1370043006923395978
1.1371590965927873551
1.1375318808456187369
1.1381233146208775686
1.138875663514949732
1.1397231853825966486
1.1406494974617873428
1.1416579743906678512
1.1427000112418597144
1.1436504466650330158
1.1443632876678657695
1.1447848911311944153
1.1449807980515065431
1.1450868971963350518
1.1451967939516654038
1.1453216907990955153
1.1454254954491049912
1.1454898469150083251
1.1455356133553133979
1.1456022932248672852
1.1457137130637655709
1.1458577787090802325
1.1459917415938449814
1.1460780092855038514
1.146118802525701863
1.1461561558620643186
1.1462429316594544559
1.1463887795322380558
1.1465429936741275974
1.1466410197197043352
1.1466701008329358569
1.1466890070794653056
1.1467753387453001324
1.1469541689728388612
1.1471720172550168293
1.147342876347765106
1.1474181470136970429
1.1474132320119385664
1.1473809640873759985
1.1473629429030876015
1.1473688819935168315
1.1473887270774794089
1.1474169266643856613
1.1474576662114741588
1.1475135869743222639
1.1475789104419651387
1.1476356941083805108
1.1476671960010254026
1.1476747892277390228
1.1476808025003495395
1.1477097352824821019
1.1477710845065940415
1.1478495623449069818
1.1479146387977396948
1.1479523117677945532
1.1479700643453529807
1.1479834821472783002
1.1480022158199449933
1.1480262361997259912
1.14805165475899984
1.148077329900772936
1.1481038902107949529
1.1481384665310883086
1.1481874693933618037
1.1482439840163278788
1.1482908129676467901
1.148314350695479602
1.1483172296023536063
1.1483176777501131749
1.1483386708952658672
1.1483964921948488502
1.1484914927222225067
1.1486047599709385825
1.1487063764189293646
1.1487681509384095602
1.1487750513575671896
1.1470462970047672346
1.1470178480908173047
1.1469250040437319882
1.1467775378262798913
1.1466181196951241716
1.1464956890236521758
1.1464351063210789228
1.1464265009035343734
1.1464422453941787161
1.1464624423224336613
1.1464847500261687863
1.1465161434781565575
1.1465599092066098841
1.1466108666885406198
1.1466619180952872803
1.1467121474338428655
1.1467669205255017761
1.1468303111184738885
1.1468988431956217422
1.1469642260195804795
1.1470244444727173416
1.1470918722967051728
1.1471877048491827544
1.1473222445375406142
1.1474766509750933263
1.1476028779551699088
1.1476466966739775621
1.1475809577050211097
1.1474272453479357203
1.1472492951485961932
1.1471212260986858311
1.1470925100482129988
1.1471666046514095161
1.1473032249779275826
1.1474456213717085795
1.1475534450825857213
1.1476209283463039146
1.1476710495856117245
1.1477347067202108288
1.1478282200677660807
1.1479443637361395059
1.1480590692901584404
1.1481489863926008788
1.1482042330374269135
1.1482333870178755841
1.1482543760751926509
1.148284537557778151
1.1483312748620335686
1.1483874409657088833
1.1484356760352556481
1.1484581750713955817
1.1484440865982490365
1.1483932962070431127
1.1483149550322380161
1.1482227509410152244
1.1481300650262673546
1.1480479461485448844
1.1479855643905485518
1.1479524740204856137
1.1479582852333880538
1.1480119631638414646
1.1481191193639366244
1.1482812089989120619
1.1484923454932463027
1.1487367300715924934
1.1489892219516510963
1.1492183196915835008
1.1493945379923611316
1.1494993865692686441
1.1495326692283993619
1.1495130394313390898
1.1494689540068026012
1.149425436225964603
1.1493956218928331747
1.1493788895527632388
1.1493651366111372614
1.1493430888229179132
1.1493077752581191131
1.1492625721776628112
1.1492162989718055499
1.1491797800268646057
1.1491603064400053302
1.1491584244991159824
1.1491646557801413753
1.149162845327049931
1.1491358440218151227
1.1490737328333742173
1.1489811413896224845
1.1488759488851667534
1.1487853489882910996
1.1487384408392729007
1.148754008125234316
1.1488315683231160591
1.148952348832201098
1.1490868891077177238
1.1492061667603727937
1.1492919457593218091
1.1493417028276593506
1.1493634697657046928
1.1493642960262620001
1.1493438625031895395
1.1492940154843729328
1.1492053739654659594
1.149075970527682955
1.148917345680383395
1.1487531343201724532
1.1486104824322671547
1.1485089629860916194
1.1484528913562850327
1.1484314518835769814
1.1484252700522812329
1.148419245819090273
1.1484085704914772652
1.1483987561933945987
1.1484054878467140348
1.1484416559858514617
1.1485092702946926302
1.1485948773790126687
1.1486728719648009456
1.1487149171936785752
1.148700241772411923
1.1486221693497526974
1.1484895673972850272
1.1483226472950991415
1.1481463512859380049
1.1479825322978842728
1.1478449179270786562
1.1477377518997893269
1.1476575160477224813
1.1475976330041413043
1.1475516914035581717
1.1475151220136607932
1.147484846841407613
1.1474583095653918541
1.1474329801084255376
1.147407572364198769
1.1473831198644794949
1.1473635800943648988
1.1473557486389507343
1.1473672874572691249
1.147404440794573377
1.1474704693912645137
1.147563503288686837
1.147676476908037646
1.1477981341780314484
1.147915110789752946
1.1480140545236854344
1.1480846638740493937
1.1481203245306808025
1.1481184845358480828
1.1480816735567569431
1.1480180584954893241
1.1479402647890859512
1.1478633022137174624
1.1478021542004412936
1.1477678429035649277
1.147764141968268925
1.14778650106661817
1.1478228955953200252
1.1478563380163757657
1.1478696454772667757
1.1478502199738458422
1.1477926402234037706
1.1476995644023122445
1.1475804833980760566
1.1474501596083275246
1.1473249505995759545
1.1472187798694968297
1.1471407234038299983
1.1470941816322250961
1.1470772909562683139
1.1470839201695539611
1.1471061350660316513
1.1471358049257911471
1.147165839394326925
1.1471901458559212728
1.1472029073012668388
1.1471990235631357447
1.147173712165486803
1.147122158643512746
1.1470404205654389784
1.1469280695929893188
1.1467903992997461327
1.1466378032068418324
1.1464830212637395768
1.1463386115274158961
1.1462140849544897314
1.1461131693626041006
1.1460320905629921562
1.1459611401419125265
1.14588902409225879
1.1458077836734532617
1.1457158108758080939
1.145618453603739928
1.1455256392795378773
1.1454479099699295119
1.1453929741752537641
1.1453629724481451113
1.1453547889032347218
1.145363218874232869
1.1453844274851621154
1.1454174736275075652
1.1454642298387345267
1.1455277239752426066
1.1456093709409369552
1.1457059526212363121
1.1458074031447469388
1.1458983634985058231
1.145962291612856232
1.1459857272942322037
1.1459619725805312296
1.145893499779655933
1.1457928006973761015
1.145680232704228807
1.1455796014529118221
1.1455127717700184231
1.1454950958179179743
1.1455327060272451067
1.1456212269224477218
1.1457458121043224697
1.145885628288556557
1.1460202326595305689
1.1461329591175097864
1.146212094698499051
1.1462531137173666007
1.1462591917585382983
1.1462376898936788017
1.146196320569758953
1.1461404791611962128
1.1460723406395214585
1.1459925315846777316
1.14590202098183358
1.1458035693638859431
1.145702752361706489
1.1456079817248234765
1.14552933548457192
1.1454756435093631506
1.1454531399804350755
1.1454649732560129305
1.1455097491893737605
1.1455816496985378183
1.1456718899234108466
1.1457724145682339767
1.1458778574275587658
1.1459858284882498136
1.1460960908360640076
1.1462090925316272827
1.1463250481616602539
1.1464434533368610403
1.1465627681764005708
1.146680153068984076
1.146791623978921093
1.1468931312525827426
1.146982467005062567
1.145714709079268756
1.1445428199527463153
1.1430899795384585893
1.1429970485605627228
1.1446552589942895484
1.1453527059341377381
1.1450874918314413176
1.1440249523057652858
1.1424864908690854914
1.1416075023223180018
1.1418992516865806852
1.1424299461393456756
1.141955831355347728
1.1409929909374110224
1.141014309009247496
1.1420124896668824022
1.1426526282041227223
1.1422992241174911854
1.1414756586492926793
1.1408789784118951172
1.1408023209309174906
1.1412004783809521768
1.1417334662674556434
1.1421648105886881286
1.1424911478422101752
1.1425661585586681657
1.1422445745861486976
1.1415996774766112853
1.1409103926252215366
1.1404872249320663347
1.1405610952049436424
1.1410993903781916359
1.1417278308211624704
1.141920491426315909
1.1414556314437651618
1.1405492547605802223
1.1396824861297505382
1.1393268700062759713
1.1396369375275583469
1.1403681149167761433
1.1411336938467322444
1.1416707344206231678
1.1418522982739267579
1.1415795071755991952
1.1410223809907205084
1.1405847680102556563
1.1405471874779318231
1.140925163084198557
1.1414639260799177567
1.1416860094028438155
1.1412367153013729393
1.1403091622621324142
1.1395109280561663834
1.1393385926642278783
1.139750466420194952
1.1404176069375273617
1.1409573405552955183
1.1411220763538536538
1.1408915796272605103
1.1404489101463866074
1.1400962042710998112
1.1399494353996681983
1.1399232119307640687
1.1399452711051281106
1.1400249680922753814
1.1400851600652457396
1.1399517619083916475
1.1395944983616395074
1.1392502565201905185
1.1391514916520577572
1.139271447018392891
1.1394624982645202849
1.1396167326247887974
1.1397324892085800574
1.1398111836235522709
1.1398433945948063251
1.1398130367035075317
1.1397452692269165464
1.1395923153042240017
1.1393277922514377654
1.1389605210736748475
1.1386050198172721348
1.1383588950383622951
1.1382170400903981466
1.1380772014366622447
1.1378698307548056334
1.1376787387360192128
1.1377046428637833664
1.1380971878319181556
1.138837988930641032
1.1396591384472660735
1.1402272929630179465
1.1403730795241673324
1.1401767748810118785
1.1398533273250655018
1.1395075410850072917
1.1391068443750376193
1.1386130412392250211
1.1381151160695006652
1.1377823304585339415
1.1377334847142597241
1.1379507555620282933
1.1383303446505514955
1.1387367144476052694
1.1390540910198527769
1.1391770805487764218
1.1390261142727433619
1.1385981829193601023
1.1379910586349262225
1.1373897813950224478
1.1369600246844269176
1.1367644007737618406
1.1367771717148107413
1.1369676826506638356
1.1373352288073517169
1.1378898476450238775
1.1386070916586834567
1.1394291873908619639
1.1403305097240867827
1.1413100196379262208
1.1423243955459698729
1.1432512697902288412
1.1439472657455163063
1.1443610600483071771
1.1445667868766054021
1.1446988824619819258
1.1448448487660425332
1.1450143215742367708
1.1451719114816152345
1.1452962233838268613
1.1454014541395398652
1.1455143030385508407
1.1456476465914939844
1.1457866408021186722
1.1458948012501279923
1.1459346123008122831
1.1459096089239309002
1.1458719395353964554
1.1458905887445653971
1.145996518775703521
1.1461607528972641568
1.146322159766889337
1.146452675819193523
1.1465815650258439629
1.1467461532768599142
1.1469358818777233289
1.1470885191377835355
1.1471448117211142659
1.1471002071228668662
1.1470042638772368626
1.1469214510494858406
1.1468905434365763707
1.1469173539301196207
1.1469899735594160095
1.1470878975987217618
1.1471889125860397218
1.1472721363415550044
1.1473270375390340892
1.1473545857832523343
1.1473693027101832254
1.1473915501277156537
1.1474350108366484502
1.1475036191933947194
1.1475909206819394637
1.1476819511400313534
1.1477677690229350915
1.1478555165353492296
1.1479597188604264701
1.1480861940929376619
1.1482197066615822401
1.148322333035533438
1.1483543621717222649
1.1483005942100255048
1.1481867739548268226
1.148073158249028447
1.1480172778153527879
1.1480421703614804851
1.1481252109088069258
1.1482225588047230147
1.1483029577788161912
1.1483654045189506387
1.148429236883491189
1.1485090421415247164
1.1485977853996900411
1.1486698890289124275
1.1486994359073243732
1.1486780536623324434
1.1486189633159060719
1.1485476009125707986
1.1468433825661419334
1.1468132827900989756
1.1467703642944293563
1.1466818702222436599
1.1465502387026988984
1.1464109055830287165
1.1463080271486079109
1.1462685587890935057
1.1462889186577196465
1.1463438364363833788
1.1464077879222660528
1.1464679643073842907
1.1465218410235040736
1.1465687778657878138
1.1466064653134702134
1.1466358110581627017
1.1466652774490531108
1.1467066655015416554
1.1467657756378366596
1.1468371174003735291
1.1469088820333059875
1.1469759256218832189
1.1470473408125430037
1.1471410308205591821
1.1472652651508958854
1.1474015734774645203
1.1475071135210603845
1.1475368162067629552
1.1474719387263743187
1.147337511851033609
1.1471944533488962481
1.1471095041052161712
1.1471204791459193029
1.1472193123277187876
1.1473601734625256121
1.147487195896265133
1.1475658867728399937
1.1475994251673502511
1.14761995538917283
1.1476663419592327831
1.147759297476135476
1.1478919965340359521
1.1480349653370327534
1.1481538233835864027
1.1482255680227957395
1.1482479424384546274
1.1482389188863428853
1.1482237962522336971
1.1482231289374027483
1.1482438907086049973
1.1482781741838112843
1.148310572964881926
1.1483269533705342536
1.1483191632885851874
1.1482867943252315079
1.1482350327870181061
1.1481714794684969583
1.1481053371539731156
1.1480480983259737648
1.1480146961670441019
1.1480213156726308821
1.1480818836145494366
1.1482037625031775718
1.1483869399255088872
1.1486196493966098764
1.148879419155145909
1.1491360470064688748
1.1493567489771701062
1.1495157917017548854
1.1496023832080435323
1.1496238494171679978
1.1496012619847884029
1.1495603705900043767
1.1495215267224492273
1.1494933035408925193
1.1494725952615478803
1.149449724990891708
1.1494157501458575066
1.1493673966572992562
1.1493086011708393279
1.1492482394661021061
1.1491977102219623763
1.1491653268545221067
1.1491524698755080092
1.1491513545684794995
1.1491486496711131871
1.1491286710843866548
1.1490832688837644415
1.149013623613577284
1.1489346009807801519
1.1488703227043746136
1.1488463920727105538
1.1488783906343940089
1.1489645761534736934
1.1490864323564884408
1.1492173557966300912
1.149333475627207557
1.1494211300255581243
1.1494777036699024286
1.14950734694572132
1.1495124846465298862
1.1494884836073646639
1.149424809763884614
1.1493135861502703499
1.1491578873143122319
1.1489757420469739468
1.1487961542426454731
1.1486489711584022544
1.1485509022220856679
1.1485003323788189888
1.1484789531396888407
1.148462589688351132
1.1484331467101445146
1.1483895439410201078
1.1483485741520642609
1.1483304297783805126
1.1483496637377184069
1.1484050179530582714
1.1484774245320534813
1.1485359176348086674
1.1485493471599341753
1.1484980659443113638
1.1483801698301083771
1.1482110610992395383
1.1480169542528475546
1.1478261415526889166
1.1476606864157119503
1.14753211734790872
1.1474409623844570305
1.1473794979950420192
1.1473368358143607448
1.1473037644465147178
1.1472753624274272255
1.1472502383344584942
1.1472286845919830167
1.1472101649029349257
1.1471939988199655325
1.1471799729316998206
1.1471698046205889288
1.1471671888949699358
1.1471768738572771795
1.1472028098107101002
1.1472483527820611648
1.1473150063087411699
1.1474015360278546627
1.1475025841888635281
1.1476085446745636354
1.1477067249123718007
1.1477840474930127712
1.1478308836728610132
1.1478423968844104763
1.1478208137650911524
1.1477753637144954002
1.1477202799993577731
1.1476708541091467097
1.1476400158423698539
1.1476347019249109049
1.1476529258183991722
1.1476850460513230434
1.1477168383239735316
1.1477324790794405374
1.1477181837175118861
1.1476661125993707913
1.1475763289411309298
1.1474569622728649776
1.147322277829461834
1.1471899149481408209
1.1470770175702877935
1.1469964202152982402
1.1469544260706399097
1.1469500131708023627
1.1469761337169273041
1.1470219907713821161
1.1470759235494623063
1.1471281617882893578
1.147172528588444651
1.1472053716265375733
1.1472234032295969275
1.1472224933724279872
1.1471980047076701936
1.1471455712941627247
1.1470620885991713589
1.1469478137139463847
1.1468089741757150346
1.1466579130560352606
1.1465099629056660913
1.146379289550654601
1.1462752306188748186
1.1461997546768205591
1.1461470953259418337
1.1461052774414710598
1.1460605417431604103
1.1460029713331123524
1.145930188667248828
1.1458474243251570712
1.1457644264331507955
1.1456913793789815781
1.1456353244889949661
1.1455980963605996159
1.1455762575022856442
1.1455637288617408487
1.1455559283437335427
1.1455528748313770215
1.1455589857499972606
1.14558023767995798
1.1456214330767096055
1.1456834469657803943
1.145760558950397856
1.145840441719659708
1.1459070941289086765
1.1459453507787431548
1.1459457408064019912
1.1459075633606408129
1.1458395246973129833
1.1457584849059361254
1.1456854642275677847
1.1456409073725932757
1.1456395239652088502
1.1456870133977365978
1.1457796583302646276
1.1459051327776714757
1.1460446321164401429
1.1461778747010247237
1.146288144211148996
1.1463645848798322824
1.1464023565362906343
1.1464033385641712037
1.1463742022543774723
1.1463228167155365966
1.1462555159805565275
1.1461763887079130519
1.1460880769455281669
1.1459934566282963253
1.1458964652986463051
1.1458028938422937237
1.1457199202305310415
1.1456554852013729473
1.1456160769368295416
1.1456041582703584414
1.1456184274799321443
1.1456545921840133317
1.1457071928804478667
1.1457717741712405424
1.1458454166316911493
1.1459274269224217768
1.1460200038452794669
1.1461266045499720612
1.1462484843104705501
1.1463835835843940725
1.1465260871132130216
1.1466676930920647326
1.1468003886612900821
1.1469181019384151465
1.1470183920713585835
1.1471025349075829602
1.1451793472867730639
1.1454033080175944903
1.1433694004460219773
1.1425067719106343223
1.1444085249013775663
1.1457425154649376609
1.1455017080338170121
1.144630617177178733
1.143268452715118455
1.1421717165030016439
1.1420856266768013576
1.1425695730305069908
1.1422772809564198937
1.1413095693168273659
1.1412772334007701414
1.1424103722197815891
1.1429878896687484247
1.1424032941728188284
1.1417904433111631946
1.1415618281175239357
1.1413737401589354459
1.1413763831509500246
1.1417554704893464468
1.1423117179011947897
1.1426650243069365054
1.1426779373965327835
1.1423793775726349686
1.1418299319976294992
1.1412192773129368195
1.1408665975534615367
1.141019782412392658
1.1415778171238963878
1.1421014901606600933
1.1421221912497201423
1.1414708798133070822
1.1404747519230764574
1.1397133969671804365
1.1396527520690102886
1.1402366980950024988
1.1410668538951003192
1.1418012700989494945
1.1422317218985416076
1.1422714542678751304
1.1418483261753615832
1.1411335343854223101
1.1405393718970164851
1.140476865706351095
1.1410415723720048753
1.141796617081566767
1.1420738532288829958
1.1415367970793313113
1.140521262583183093
1.139763782039537432
1.1397464904755731929
1.1402508786978202693
1.1408439216845993602
1.1412553414186521472
1.141399760955769338
1.1412921477187516484
1.1409772434591116674
1.140678951446369549
1.1404659853365510802
1.1403808032434386011
1.140358966789724704
1.1403566928364459176
1.1403269916568197218
1.1401707600556145739
1.1398888180349662225
1.1396392838316331542
1.139575980579204284
1.1396941027076239461
1.1398588157336149163
1.1399502595479289457
1.139892709780940816
1.1397061327869482117
1.1394973592925086159
1.1394066723955702525
1.1394734471330818515
1.1395739967152462846
1.1395392032268150118
1.1393216518512392366
1.1390406847174951999
1.1388426317295827772
1.1387606757057571194
1.1387195809295072024
1.1386397569961785869
1.1385176065624342812
1.1384747291479120346
1.1386658706411505459
1.1391490335550660262
1.1397710552381687954
1.1402379961940851683
1.1403589908782783002
1.1401696897176429868
1.1398281412559450043
1.1394518579103942724
1.1390555176577323859
1.1386378196487230152
1.138261567395759899
1.1380296289101103913
1.1379999557477633587
1.138159444732596226
1.1384373711558128939
1.1387464299308374116
1.1389632655840191688
1.1389807744845004134
1.138738659689138899
1.1382596153014665763
1.1376599338353035051
1.1371084978584111713
1.1367616039085528534
1.1366719608662851915
1.1367825866183847161
1.1370237504200484402
1.1373877794836562138
1.137892395702387649
1.1385548014982254106
1.1393398888749100006
1.1402060887510314657
1.141143258753473777
1.1421147493763992298
1.1430142897117867573
1.1437154674502785223
1.1441586134158399091
1.1444014491700602587
1.144547781088886218
1.1446704906416118597
1.144790920050531291
1.1449138189908212304
1.1450491912743636647
1.145211078920336023
1.1453950531035170801
1.145571640685618009
1.14570523280314851
1.1457601107979511479
1.1457219045585542716
1.1456225046641195231
1.1455339566076718771
1.1455289285898098139
1.1456406715578624222
1.1458438709492566598
1.1460770154218302697
1.1462986256219713788
1.1465073620077526062
1.1467058036704325108
1.1468625790464030967
1.1469233154446376588
1.1468604335300256469
1.1467044473335565868
1.1465316714856657043
1.1464152542208001506
1.1463970554875200225
1.1464859864769447739
1.146658063153842555
1.1468619626056630878
1.1470361946002687326
1.1471305189249174639
1.1471379886907657752
1.1470933480463925136
1.1470524844015084209
1.1470563856354882848
1.147117050308799957
1.1472186708743226102
1.1473318895033615128
1.147443783301631548
1.1475680642556189692
1.1477302625970899896
1.1479458411064871193
1.1482001377474078119
1.1484408075909426916
1.1485904873739423149
1.1485829999962267056
1.1484111041630868932
1.1481429153604003623
1.1478883365406544748
1.1477429697199532654
1.1477460809757209503
1.1478686127238642012
1.1480443273291214279
1.148216232049430463
1.1483647197449635691
1.1484945789003313532
1.1486024906985312644
1.1486657979557246545
1.1486612815677532673
1.1485874806304841034
1.1484729923603964608
1.148362254990972442
1.1482938366048263124
1.1465825728941800854
1.1465176954463194292
1.14648401204968442
1.1464432965137545395
1.1463753192972898631
1.1462909885167102964
1.1462215648029494552
1.1461970223824839987
1.146228559597984642
1.1463050541545420913
1.1464036922763658488
1.146501583378597422
1.1465813356625982333
1.1466330281770742427
1.1466549925043194591
1.1466557960103600511
1.1466539622677693888
1.1466699681105583242
1.1467147216535278353
1.1467836013962389163
1.1468625523598057203
1.1469420523471731688
1.1470250596740758642
1.1471218888050254137
1.1472359420928395224
1.147351014602994379
1.1474337621292005629
1.1474520701415336088
1.147397062863448447
1.1472932889796683131
1.1471914126944682266
1.1471437536897106657
1.1471756622576074758
1.147273959263086951
1.1473968830558438636
1.1474992907733876368
1.1475574444077796255
1.1475789211115519084
1.1475959999022800062
1.1476449829849366679
1.1477468295756723116
1.1478942192813961221
1.1480543110566374665
1.1481834735355518351
1.14825043467934651
1.1482487256108091511
1.1481983320395554582
1.1481341034940284462
1.1480889683085753195
1.1480819928185186374
1.1481134359370750442
1.1481683542230036732
1.1482261108975628794
1.1482698527287009682
1.1482910164270698772
1.1482887420469189976
1.1482672552625634577
1.148233863533073329
1.1481993416399212116
1.148178591061111975
1.1481896042949832903
1.1482495754664521215
1.1483698451320445422
1.1485503961383289884
1.14877673903252564
1.1490199915381813511
1.1492459020909147061
1.1494254285892617773
1.1495428689085249729
1.1495989468725522631
1.1496079125066887006
1.1495908121575848515
1.1495671203608777144
1.1495480194288076881
1.1495339343507535723
1.1495173547932702185
1.1494889834624946179
1.1494437470276344104
1.1493825501436794045
1.1493119318598028489
1.149241551992953525
1.1491818715657837746
1.1491404918951155789
1.1491186231681271845
1.1491110680838083624
1.1491078202564359856
1.149097507026667131
1.1490724200167301561
1.1490322647979027693
1.1489874556967580865
1.1489566489508324931
1.1489598554304154554
1.1490058800798843563
1.149091583975706321
1.149203345738743387
1.1493203944571135366
1.1494237043090014261
1.1495029184972906933
1.1495570855267067678
1.1495886885123607346
1.1495970584335313269
1.1495731280640857364
1.1495043710321435348
1.1493823782202694517
1.1492127747609963695
1.1490171363763410639
1.1488277935894071202
1.1486747973535067491
1.1485744951152538906
1.1485212392224288802
1.1484925920042439174
1.1484619426755109384
1.1484126476986205034
1.1483462985551746716
1.148280584157932438
1.1482387658936994423
1.1482359557437529229
1.1482689452193000079
1.1483154087819316125
1.1483422051454477142
1.148318002926977055
1.1482258408203556144
1.1480693078950630071
1.1478702785112713247
1.1476601230498548745
1.1474689103975217463
1.1473173662854809773
1.1472124541316046642
1.1471482559297230264
1.1471112311838234099
1.1470861788328969855
1.1470626316072540796
1.1470373954215014045
1.1470128669552499545
1.1469937821772333564
1.1469830820786406367
1.1469804324489301095
1.1469830329334929075
1.1469879651882490812
1.146993758740069147
1.1470010456164569934
1.1470125673796045529
1.1470327161428053309
1.1470672204609171363
1.1471202364658501516
1.1471921015552390966
1.1472775036786302394
1.1473662185767199428
1.1474453976721599169
1.1475039866298972768
1.1475351322701079493
1.1475384636331591448
1.1475208761680044667
1.1474946988703942363
1.1474733840484268033
1.1474669796560224011
1.1474794610570588915
1.1475071063860904363
1.1475394309786834945
1.1475630895904271878
1.147564644833543035
1.1475329601156936121
1.147462301854036637
1.1473546960769498426
1.1472203224483967787
1.1470756488794457972
1.1469403111384859351
1.1468330595546725181
1.1467675144265145892
1.1467496124361722387
1.1467762829725918206
1.1468369018759052569
1.1469165672104084663
1.1469998202918076924
1.147074197110101057
1.1471323734974865349
1.1471720421618327723
1.1471927177546079601
1.1471931351117923281
1.1471706721706544929
1.1471222012624475717
1.1470457140700744958
1.1469422003455784775
1.146817666277717418
1.1466839878658643403
1.1465562038677048484
1.1464483141896220086
1.1463691524163130975
1.1463199504949601604
1.1462944640161514265
1.146281111582774459
1.1462666992541812316
1.1462402608680057892
1.1461968725360294208
1.1461386643773439076
1.1460726760396668933
1.1460068929447857489
1.1459469021676733647
1.1458945631954524647
1.1458480152167149768
1.1458038266592498466
1.1457595078806359634
1.1457160078847881124
1.1456791282617857508
1.145657156296320478
1.1456575365374506159
1.1456837968428390528
1.1457336638070305668
1.1457987948653842736
1.1458659819111847167
1.1459204486647553978
1.1459504060538203696
1.1459510372632473185
1.1459260531340798028
1.1458868662547734285
1.1458497286565825224
1.1458317978473506749
1.1458464670010528597
1.1458993830331705155
1.1459870521136481525
1.1460986881952215377
1.1462192672471627208
1.1463325137775723928
1.1464248080021204323
1.1464877755927267433
1.1465181012922827097
1.1465168181714080475
1.1464884365988057269
1.146438918041798205
1.1463737597277274816
1.1462972111626470451
1.1462128594721252561
1.1461244598659043881
1.1460368928103144004
1.1459564902056549318
1.1458903038941492536
1.1458440538472496328
1.1458208385304009536
1.1458202493685210044
1.145838189487140335
1.1458680946075978646
1.1459042214282446626
1.1459441073493137342
1.1459892590733635753
1.1460447326454681338
1.1461177021746202787
1.146214306274251582
1.1463368326764526994
1.1464815448426144417
1.1466385666843041946
1.1467944932717146767
1.1469362332949255556
1.1470549562321386006
1.1471483553730092986
1.1472209755244016094
1.1472816479030940595
1.1452246794764966431
1.1462946819569439505
1.1447177679020779095
1.143754461659897359
1.144879453792856161
1.1453901155711958548
1.1449639159267159805
1.144314547856050579
1.1436023798186285561