/*--------------------------------*- C++ -*----------------------------------*\
  =========                 |
  \\      /  F ield         | OpenFOAM: The Open Source CFD Toolbox
   \\    /   O peration     | Website:  https://openfoam.org
    \\  /    A nd           | Version:  12
     \\/     M anipulation  |
\*---------------------------------------------------------------------------*/
FoamFile
{
    format      ascii;
    class       volScalarField;
    location    "0.00519";
    object      T;
}
// * * * * * * * * * * * * * * * * * * * * * * * * * * * * * * * * * * * * * //

dimensions      [0 0 0 1 0 0 0];

internalField   nonuniform List<scalar> 
75962
(
300.24708111425627521
300.54529663220012026
300.6482323287757481
300.47716266238160188
300.35327010375453938
300.34615964663328214
300.25421946976263143
300.06316904360147646
299.92137086820343939
300.00021705882772949
300.28916096536988789
300.56396006017672562
300.61181383118002941
300.49592993682898623
300.4194120251095228
300.43676616419588754
300.5103413819532534
300.6079948936877031
300.68977185015432951
300.74979686717358618
300.77694027835542556
300.72739799695051488
300.58239368914007628
300.41434514771464137
300.32404121961866394
300.34768980670952487
300.43490458207605798
300.52780534437772531
300.59435848515681755
300.60862252616749402
300.57238990476685103
300.52984974960810405
300.52614225238943391
300.56979820423902083
300.64372486270013951
300.72265963061175853
300.77757810751666057
300.7656916409738983
300.65977941465899903
300.48403986121104481
300.31899224248854807
300.24969854847017814
300.30802147775716548
300.45084251485531013
300.58356134518140834
300.63591768262506321
300.58269375272368507
300.46793887824298963
300.38698902486243014
300.41365718274482788
300.53984024493490779
300.69691780359892164
300.80295653060318273
300.79800755799846002
300.6878947686429342
300.53384855799333764
300.41522490937956036
300.36671044065451497
300.37518212832361542
300.41146671526212231
300.44098589604368499
300.4468071654941923
300.42137276394896617
300.4004559945510664
300.42698966872336541
300.50396068940000305
300.58560979556546044
300.62541913697941709
300.61963478110266124
300.59111492768181506
300.55836444491006887
300.52813617605329455
300.50451876954025465
300.48996086559384366
300.47775481563718358
300.44671967737218665
300.38814928659598991
300.31441882610511129
300.24805910582057322
300.21634735828342855
300.23791847441964364
300.31898019227259056
300.44871749243799286
300.59146325650311837
300.69597576297519481
300.72678984292213045
300.68338349460464087
300.59317005290461111
300.48572386877629015
300.37676263744623384
300.26742505133017858
300.16322525032427393
300.08744570190390277
300.07532426844056772
300.14835981840951717
300.29101513062647655
300.45321710173556085
300.57957220331928738
300.63730850167490871
300.62291516290821392
300.55274391014074808
300.44948014601681052
300.3391383558799248
300.24751026937275356
300.19839687814879881
300.20511843220043602
300.26643619660825379
300.36727439775290804
300.48672338717193497
300.60300722284881658
300.69243508283443589
300.73121833288371363
300.70332682894235177
300.60725673929209734
300.45417768320788809
300.26129528226204002
300.04314479090999157
299.81308928053522322
299.58743107990045473
299.38161082569052951
299.20249079833848782
299.04565300198100886
298.90117284278130683
298.76563995879814684
298.64521077902799107
298.55112818014617915
298.48850069479647118
298.45250298263209743
298.43258590206028202
298.42009402220782022
298.41156100724145972
298.40747812979839182
298.40912761529318686
298.41602688562198864
298.42521833264811448
298.43369665438257243
298.44125892075055617
298.45061388695421556
298.46507498181597384
298.48376063252192125
298.50025397469784139
298.50769493697265489
298.50569390381463108
298.5022840049227284
298.50786889200463747
298.52691846976688339
298.55441841251621327
298.58042535094870118
298.59785676494641393
298.60611651608178363
298.60904415006410773
298.61016285874416099
298.61048850123938792
298.60961633455946185
298.6081924211578098
298.60824381093925695
298.61166842315117265
298.61910972376728068
298.62913369458703983
298.63949158568112807
298.64908444435110368
298.6587741711318813
298.66988133842062325
298.68262355042378431
298.69512388927233815
298.70421473619649078
298.70870656607200999
298.70992075761978413
298.71026131963617445
298.71160753705527213
298.71475837233339234
298.71988885047289841
298.72722324883864076
298.73695272882957852
298.74975980490927441
298.76613613045753937
298.78502031067017697
298.80406110651324525
298.82109969470161559
298.83569517678927241
298.84920166489007443
298.86366671181070842
298.88058560439810663
298.89989409195379721
298.91959702176268365
298.9366484342179433
298.94826918792824699
298.95309140650454083
298.78549211203727509
298.78304034488110119
298.77363860992238642
298.7582494126343704
298.74145842684566787
298.72858972321387228
298.72237437485847522
298.7217259111016574
298.72355682108286601
298.72562242414880984
298.72768260188075828
298.73061849063577711
298.73493746918677516
298.74015541468565971
298.74547707508685335
298.75073301352426824
298.7564679560877039
298.76314880018679787
298.77043485050393201
298.77739619609883448
298.78369853066942596
298.79054329269791879
298.80018544389207591
298.81389522300776207
298.82994576411317666
298.84345091199099897
298.84865514661908037
298.84244292871477455
298.82674715791796416
298.80804809752874007
298.79412964234643368
298.79037601507661748
298.79742268234826952
298.81125936718893854
298.82600112105222934
298.83736139755723116
298.84463498206150689
298.85015325509209561
298.85713001839013714
298.86727628759206254
298.87983432030836184
298.8922321880508548
298.90196225823115128
298.90792600191269912
298.91098478209977429
298.91301618069434198
298.91586374889573108
298.92035684814641172
298.92582961032206867
298.93054868720156492
298.93271920639750761
298.93123983497059726
298.92608700213759221
298.91815916268888031
298.90880833726811261
298.89935928123543363
298.89091618235983105
298.88441305266621839
298.88084786054088227
298.88124518427963494
298.8865744506711053
298.89747408789810379
298.91415160161852782
298.93605946988651567
298.96159834053617033
298.98816224760565774
299.01242768535274763
299.0312325606585091
299.04254379646442885
299.04625107168862996
299.0442552924228039
299.03954186433122686
299.0347705822252351
299.03136046032409467
299.02928958490724654
299.02753970194578415
299.02496716392909093
299.02108070166963216
299.01624716451885888
299.01137679144528647
299.00756691695994505
299.00555081392536749
299.00540824498091297
299.00620354749315766
299.00630004646131965
299.00391226232596864
298.99792193192445211
298.98867172944409276
298.97789191839086698
298.96833615687444308
298.9630715635706224
298.96419982298601781
298.97185338705224922
298.98421134484556205
298.998258966200126
299.01093787133987689
299.02024494994049064
299.02580998953391145
299.02842498994266407
299.02881603717725056
299.02695287468003471
299.0219693350333614
299.01284047106486241
298.99930037046067355
298.98251320427436895
298.96496642313502434
298.94958192337912806
298.93853609723970521
298.93240710689553907
298.93014279523447385
298.92970717647278889
298.92942395820352885
298.92867653255876803
298.92790322911349676
298.92868035872317023
298.93237758977375051
298.93929826150349527
298.94815603268625637
298.95636366645339876
298.96097118766579115
298.95974323904584935
298.95186234120205881
298.93813450970731083
298.92060057754383706
298.90187800001166352
298.8843393928609089
298.86954899527438556
298.85807179029006875
298.84961356063752191
298.84349073464358071
298.83897403509541846
298.83548503314193567
298.83258782564206513
298.82992781615871536
298.82720219231293868
298.82430102276566686
298.82139831718649248
298.81899090902533089
298.81786349715758888
298.81886317560150701
298.82265019581063825
298.82954571369725727
298.83931289609188298
298.85116281807728456
298.86388144180301651
298.87606049012725862
298.88631471296730524
298.89359152699597644
298.89723602166787941
298.89701182964086001
298.89320344738484891
298.8866703577904218
298.87872235321674452
298.87089872101711308
298.86472044153845218
298.86129535598746543
298.86098430431945872
298.86329639860451834
298.86697528062785523
298.87026100633681835
298.87138979972326069
298.86908915635183348
298.86283305548607814
298.85293084559225463
298.84038451205390174
298.82672880898854828
298.81365853382698106
298.80261585506406163
298.79454012518783657
298.78977905734370779
298.78812495979707364
298.78891523471162373
298.79129958409868095
298.79440818975149341
298.797485542389893
298.79989093819852997
298.80103579718138462
298.80042824363709997
298.79761937611806388
298.79214870446554642
298.78362618861882538
298.77199559949360719
298.75777462811311125
298.74200308399116466
298.72597196802422559
298.71096135937335703
298.69794950852877946
298.68733227508960226
298.6787449936603025
298.67121238479467138
298.66359110426026291
298.6550645545761995
298.64546107180956369
298.63533096309322445
298.62570521326438211
298.61768591140594253
298.61208542290546575
298.60913790970522541
298.60852589399053159
298.60970480380643721
298.61225435303833819
298.6160381828628374
298.62120463490077782
298.62802106468524244
298.63658696420236538
298.64653143538095037
298.65680655262514165
298.66585693965527071
298.67203237726693033
298.67400422801955528
298.67113675536131723
298.66372711825778197
298.65308146062881178
298.64129012442066369
298.63077776111737194
298.62376355638212999
298.62181415575014398
298.62556786169727729
298.63459387232131803
298.64738960829782854
298.66184146721508341
298.67586498252825322
298.6877346726879523
298.69620418463779288
298.70076030597596173
298.70169328426447919
298.69973993081987373
298.69569225226484832
298.69011967242846595
298.68326223213335879
298.67518398321976747
298.66595151282581355
298.65579669281061115
298.64523603857310263
298.63510486871535932
298.62644134145011776
298.62018706045284944
298.61706637762569017
298.61751039089983806
298.62148300020419356
298.62846170820102998
298.63758297455984803
298.64801904399519117
298.65917311795823252
298.67072810545556649
298.68258598422897876
298.69472756688998061
298.70713604146760645
298.71974283441466014
298.73239245357780192
298.74480305249204548
298.75657665523959849
298.76728735614170773
298.77671192072779149
300.08641897377361829
300.5799360146863819
300.55273367638767468
300.35698015900737801
300.36117207978566057
300.38729078555991236
300.32585191498372978
300.13048388736456218
299.92607813183423104
299.95701574496894182
300.26169160647833678
300.58243990457089012
300.64007569530156161
300.47907732991819785
300.36105675095757306
300.39989820491194905
300.51214180958208999
300.626453891679148
300.74231547255152464
300.84129220352934908
300.86576688357592957
300.78215347506881017
300.61068327113019905
300.43506254472822548
300.35567272023848773
300.39724592348028409
300.51308490773641324
300.6329992180066597
300.70285376812950062
300.70195722167926533
300.65083036703816788
300.59208722784688916
300.56163255347854601
300.57260705130778433
300.62536018936367554
300.70088021714661863
300.76039352438323249
300.76212573811579887
300.68191255642210535
300.53317270983251319
300.38242075667551489
300.32249095959423357
300.40044515649003642
300.56259962383751372
300.7026459732938406
300.73728997055553691
300.64934886788103086
300.50257499488179747
300.40334046806759716
300.42066772567415001
300.54285100790758634
300.70236440838635872
300.81890712205444061
300.83598332466306147
300.73919607127953668
300.58002435704997879
300.44206148092729336
300.38599846089726952
300.41508108231107599
300.4832585476349891
300.53870598042885831
300.54729200625729391
300.51105673389923822
300.47263733463893232
300.48157961634910862
300.54361754263914008
300.6137430822358283
300.6434339472323245
300.62550574553768001
300.58329263446688628
300.53928521354669101
300.51003863912569614
300.50204079046534389
300.50948141214945508
300.51032751884952177
300.48208322092153821
300.41923752292029803
300.34290749854261549
300.2795874655992634
300.25502155284078754
300.28152431887770035
300.36130007979539869
300.47850450438500047
300.60055354457313115
300.6881945705625867
300.71504323597338271
300.6810730087598813
300.6065059226822882
300.51396222593365337
300.41792818766134587
300.3182607759771372
300.21753182210534305
300.1361269257175195
300.10865121109708298
300.16134058388740868
300.28338952356705249
300.42992550477174518
300.54825173210929279
300.60586566716489187
300.59625599957155373
300.53088440204123799
300.42953580199173302
300.3196526426085029
300.23136058150294048
300.19042627617619701
300.20758383877193864
300.27563401129293652
300.37671583552582888
300.49093645336233749
300.60219324780143779
300.69342136704756285
300.74271008952047168
300.72839262804825466
300.64037597716162509
300.48427440144581624
300.27737708708394848
300.0399693886362229
299.79072777130755867
299.54977401178365426
299.33544042667477925
299.15595414476968017
299.00530219335047377
298.87018739667587397
298.7434240287875582
298.6290786135668327
298.53703857977484404
298.47222027759767116
298.43140926469294527
298.40660066468041123
298.39119049799109007
298.38264649900497716
298.38065571305133972
298.3848528701338978
298.39337696408773581
298.40295785071668888
298.41007123994216954
298.41460674665842134
298.42054374067839717
298.43298945152406532
298.45298529124147535
298.4756505916056426
298.49336258774616226
298.50289823740001793
298.50832017058587553
298.51572489726152071
298.52674715911973635
298.53722974271465773
298.54226980834113192
298.54145221539300792
298.53900696994946884
298.54006688742157394
298.54684569104705361
298.55820042035401229
298.57163148600915292
298.58457027635279246
298.59518741892742355
298.60258533204290643
298.60728185081336505
298.61072071126471883
298.61501410201918816
298.6220651836408706
298.63248462272952111
298.64569889547857429
298.66018673232821357
298.6737585833447497
298.68510461387944588
298.69493157133712202
298.70515730358221163
298.717172823082592
298.73040467145364119
298.74185345779181944
298.74802526985848772
298.74761518151569817
298.74331527650878115
298.74127247313373346
298.74729954144015664
298.76348418294730891
298.78692670471804149
298.8123179775982976
298.83563576966065511
298.85618612873929578
298.87564036295248115
298.89533879429620811
298.91442899339079986
298.9301614992259033
298.93983724373833866
298.94272165708156308
298.94045690649465996
298.93597965063793254
298.76320006385390116
298.76046951673896501
298.75653360339106257
298.74770944868345168
298.73413201443577236
298.71958326135893458
298.70883869649048847
298.70481231285930335
298.70709338371943886
298.71291420195933597
298.71951223741837111
298.7255753193186365
298.73097117737739836
298.73575921828552282
298.73971389386656483
298.74284700325483755
298.74595255019886508
298.75024508976838433
298.75637748293286222
298.76381616589105761
298.77129119733592688
298.77816707076391367
298.785325314822785
298.79469141195704651
298.8073127918580667
298.82147641042041641
298.83280801043508745
298.83650740436360138
298.83036058595070017
298.81668404022758523
298.80166938534102883
298.79232596117770981
298.79281302152321587
298.80255278835221588
298.81694837547593124
298.83021163791465824
298.8386635293661584
298.84251609236270042
298.84503855378966364
298.85026105895531146
298.8603438855574268
298.87457050277822646
298.88983316267677992
298.9024815685708063
298.91005818866494792
298.91228531279796243
298.91103931340398958
298.90901934074986457
298.90845875693020162
298.91019644318799919
298.91350707619648119
298.91683954134458645
298.91872420091283402
298.91826179865603308
298.91530999283924075
298.91029316355241008
298.90390060026061292
298.89703615079559995
298.89089733463100629
298.88709535370429649
298.88739505809024877
298.89333742151416118
298.9057525699045641
298.92468644284815582
298.94894914613360015
298.97620726127735225
299.0033034046577427
299.02677351336581069
299.04385351438031648
299.05332792692666999
299.05589259550248471
299.05370969241954526
299.04945792706325847
299.04527472612932115
299.04207950516439496
299.03958603843847186
299.03683320688310232
299.03294501836938935
299.02762807151799507
299.02130983516633478
299.01489436602798833
299.00953652815854866
299.00609414544004494
299.00476243546341948
299.00479505895339116
299.00486097158199073
299.00329255511701376
298.99912855490248376
298.99232290257032219
298.98426495346831189
298.97740272875370238
298.97446823142456651
298.97726691731105575
298.98582151512812288
298.99835077528786087
299.01211093986313472
299.02454359674084117
299.03410773442612935
299.04041467037325219
299.04383214550830417
299.04460008539916771
299.04224559895260427
299.03566916903150741
299.02402649454631955
299.00760471321251543
298.98827430009185946
298.96910357085869236
298.95330525864812898
298.94274713518063891
298.93736052306172724
298.93526983923021589
298.93390852197251206
298.93128590145153112
298.9271376890271199
298.92312628373963435
298.92132183958062797
298.9232743498798186
298.92894056261474134
298.93642396109822812
298.94255160358903822
298.94407063278157466
298.93887043445369045
298.92665738665488107
298.90895023833013511
298.88844353941618692
298.86811440532909501
298.85035438953252651
298.8364849360219182
298.82666607359789168
298.8201546983410708
298.81581144194194621
298.81261791576588394
298.80996758552203119
298.80761613303275226
298.80552215872239685
298.80360471482975981
298.80181147957597432
298.80016833102490637
298.79890920816166044
298.79846017996777618
298.79933199822130518
298.80192581935170892
298.80656220978517013
298.81337515897240564
298.82222693675788605
298.83257034427663257
298.84343376144818194
298.85353429269775916
298.86153441506115769
298.86644103420809415
298.86774619563215083
298.86567171739801552
298.86116605549705127
298.85569754786007479
298.8508429229323724
298.8479200556377009
298.84761611345032861
298.84968440911853804
298.85308689195824172
298.8563227776079998
298.85774010330442252
298.8559208062365542
298.85008963325282139
298.84031143066647473
298.82748738355940077
298.81314578991378994
298.79914801455043971
298.78729172158017491
298.77891088750624249
298.77464779803568717
298.77437330862130693
298.77732315945394248
298.78233275881740383
298.78814216569878681
298.79369893736225094
298.7983459992567532
298.80170876004564207
298.80347000152897863
298.80323952163172407
298.80057725071031882
298.7950588852094711
298.78637202684234353
298.77453089955065479
298.76014968395202231
298.74447320821462881
298.7290688862949537
298.71540174020009317
298.70445061410936205
298.69643781104798563
298.69078780555514641
298.68627894215956076
298.68150184797161728
298.67544130212201026
298.66784945102841675
298.65926235488899465
298.65069439456772216
298.64321119504955959
298.63755833099696702
298.63393565474564184
298.631982026153878
298.63104514670692424
298.63061125568822263
298.63062655468803541
298.63149389854390847
298.63378714142305626
298.63797833282467309
298.6441590970806601
298.65176236561410406
298.65956220209932326
298.66597344939594905
298.66949648821741903
298.66919755364011735
298.66501718167302215
298.65783742774783605
298.64936167033187076
298.64171722642242912
298.63697970638418155
298.63665968523582706
298.64137315296613906
298.6507905375244718
298.66369506243353271
298.67818104735164297
298.69216523583895651
298.70389854552956876
298.71220794193493475
298.71652941720179797
298.71700563221196489
298.71430024954167948
298.70922536405220171
298.70245231101455374
298.69442487253053287
298.6854236120581163
298.67572847693583071
298.66570031540885566
298.65587887595290795
298.64696307499792738
298.63976755381361272
298.63499822581002263
298.6329762438683133
298.63366805599855525
298.63672982029709146
298.64168024129207879
298.64810221046644756
298.65569634280660694
298.6643648449602324
298.67428870504494398
298.68576539564242012
298.6988644698822668
298.71332515735946345
298.72851441914167481
298.74355857162953498
298.75761987731397085
298.77006969069407205
298.78064584774159584
298.78948659262380261
300.11802841738290226
300.5755181698616525
300.54176500112833992
300.34904818624283962
300.4063537672988673
300.46808439985125005
300.37009996838628467
300.1984624180408332
300.04576682668243848
300.06823430978209899
300.31560518456257114
300.60868086833608004
300.67965808053128285
300.51992903056293471
300.38561512574352719
300.41555768967003814
300.50363212793922685
300.5960748200440662
300.75744285415134982
300.92381935447684782
300.95130118583170997
300.82202806652583149
300.62343662464132876
300.45965450544264286
300.3970652742417542
300.45407982051830231
300.58838998875103243
300.71774062810555961
300.77749319314847298
300.75511879193010145
300.68283030928819244
300.60409012295815501
300.55381842040890206
300.55376505798363951
300.60630494645818089
300.69511024126313714
300.77948992508407855
300.80996791545908309
300.74317100496602961
300.5900773713249805
300.43767918407678508
300.38935655918794509
300.48627435871804892
300.65925407237637046
300.78831788162972316
300.78872422278436716
300.66587617891099171
300.50783688160800011
300.4152292051483073
300.44012040069088698
300.56370332608400986
300.71940592958543448
300.83289257770195491
300.85069313911759536
300.75145994169605501
300.58710490128208903
300.45644359414848168
300.43018584357213285
300.50141790002049902
300.59713583210481147
300.65399364930118509
300.63885458092380532
300.57781989743642725
300.52224971530307585
300.51760802262691641
300.56895185589814901
300.63399270447604295
300.66428457335535995
300.64459419671760543
300.59381310943649623
300.54236763725799619
300.512620741653393
300.51119670511928916
300.52105331393750021
300.51623773214845414
300.48121458321520549
300.42407673368552423
300.3678439504230937
300.33184487998312306
300.32707838941195178
300.35954738848579382
300.43148524300204372
300.53289934669783179
300.63782335089166509
300.7147675722046074
300.74190983188560722
300.71404055659138521
300.6442081169393532
300.55201623225457297
300.45420540154492528
300.35668662649840144
300.26138843950894852
300.18393925018898472
300.15383225873438278
300.1923790407321917
300.29217640100847575
300.41662008971997011
300.52141925844847492
300.57618346832310863
300.57115541142576376
300.51230010013563287
300.41792805702368696
300.31534673539113101
300.23599105165499168
300.20201978663800446
300.22142522800686493
300.28681348792548533
300.3812069951831063
300.48600436442836781
300.58487446054982684
300.66351633675037647
300.70420730386030073
300.68680321476341533
300.59962043640848606
300.44708185011302248
300.24389988686067454
300.00967222542806212
299.76087884812909579
299.51335127952069115
299.28486201152543345
299.08742940631418605
298.92123934646809857
298.77899256925610416
298.65509842898165971
298.55222712224025372
298.47516111122564553
298.42399209805688542
298.39316867459365312
298.37618713605314724
298.36867992676064887
298.36870450598866
298.37438462876281164
298.38272631994789208
298.39083269928744357
298.39567653645542578
298.39548385480912884
298.39210261898421095
298.39078026608660821
298.39688414273928174
298.41236886395091688
298.43404748252618219
298.45578565724520104
298.47415138732759488
298.49044022696386946
298.50667425616722994
298.52110819657156071
298.52888043122709405
298.52694485881391984
298.51749893458293172
298.50708193038690297
298.50189690006618548
298.50518130278288709
298.51734146375690671
298.53597270972875322
298.55632426936949742
298.57297014376456445
298.58182867487118983
298.58324460090835828
298.58149600655900713
298.58239503578863605
298.58950130345891694
298.60293571139857249
298.61995127638880376
298.63667057150831852
298.65129894042797787
298.66523483027680186
298.68153402089347992
298.70258477137883801
298.72794155306257835
298.75329061049330903
298.77146009477337429
298.77595338266405633
298.76590064563140459
298.74804651345925777
298.73349219697087165
298.73186988897191441
298.746879335992503
298.77491776589505434
298.80836636362073477
298.84056841615256417
298.86899737384044329
298.89395850854867831
298.91509512125253423
298.93002558794154311
298.93626749466801584
298.93366915373059101
298.92538345547069412
298.91637282737440273
298.9110209819228885
298.73575675441719568
298.72934535626723118
298.72633080628270363
298.7225372552128988
298.71574105597494508
298.70708767709118092
298.69992280602042456
298.69743794363927236
298.70079010669218178
298.70875722893276816
298.71892929768750946
298.72897453725948935
298.737183428904018
298.7425917467370482
298.74500063996504196
298.74519195540398186
298.74498140398998203
298.74646873685838955
298.75084399872343965
298.75770248733664403
298.76561753272642363
298.77358335404937861
298.78190183201394348
298.79171005899081592
298.80348930887083725
298.81567063224099456
298.82479579369964995
298.82738820185795703
298.82228513507402567
298.81180115909683082
298.80108751241795062
298.79565472534773107
298.79835140397136684
298.80805240929026922
298.82058188299509993
298.83129327032770561
298.83765948180058558
298.8403550908166153
298.84262996661607303
298.84818644232001361
298.85918958256257838
298.8748777687331426
298.89183473438856709
298.90547285024535995
298.91246785538027098
298.91210788995823577
298.90647955698926808
298.89928539900785154
298.89407043379168272
298.89294753270365845
298.8960485848482449
298.90186569559148211
298.90822113367897828
298.91326040358950422
298.91595366412860812
298.9160780296555231
298.91398073009293057
298.9103919818585382
298.90646824513106594
298.90385077855034979
298.90452023225878975
298.91037176336800485
298.92266044252420443
298.94141468473287659
298.96514381676456651
298.99081525826846928
299.01480829534028771
299.03402774744557746
299.04677090476099011
299.053063907518208
299.05435906372076715
299.05282761306210659
299.05047757800406316
299.04845696549205059
299.04680776224864758
299.04477051458536607
299.04142877422458469
299.03632524989785679
299.02961491731184651
299.02200321218367662
299.01448457687422433
299.00812610485365894
299.00372116420896873
299.0014378105622086
299.00079435925783855
299.00078089251110214
299.000180202566753
298.99807260230556949
298.99426722523833178
298.98971720736199131
298.98631900799637151
298.98625037690169393
298.99061087219337196
298.99923720544501293
299.01082618638173471
299.0232336355857683
299.03439045872966062
299.04308144637718669
299.0490893783803017
299.05261295660028509
299.05358705436293576
299.05109692311020808
299.04386073963513581
299.03099697448345751
299.01307136992829783
298.99233197410325147
298.97219492235234384
298.95588295445890026
298.94520803298433975
298.93965859885656755
298.93690339245091536
298.93411040924536337
298.92943671171940423
298.92293497737705366
298.91637043122608475
298.91213872473588253
298.91184453125936216
298.91521961851987044
298.91999773414579522
298.92275690029134694
298.92022073774933233
298.91057362055704516
298.8941266461326336
298.87311088620742794
298.85079073921838244
298.83034404490979341
298.81401996330373549
298.80264883092519312
298.79568989322262951
298.79176357398438313
298.78926336332494884
298.78703619018239124
298.78467205192106348
298.78235479644058614
298.78054019027280219
298.77953133752987469
298.77930436557625171
298.77958858630097438
298.78009042666042205
298.78064801465308165
298.78130213314796038
298.78231337633201292
298.78412260339422346
298.78734488417694592
298.79246502772480198
298.79958283546358189
298.8082054214325467
298.81731185539803164
298.82557655179670064
298.83182843615060165
298.83532191069730288
298.83597975617323073
298.83449101220071498
298.83212651218661904
298.83028310713331166
298.82999742621632322
298.83165341732819797
298.83481539731826615
298.83833406795986321
298.8407774424604213
298.84073108688124876
298.837048939059855
298.8291765574944634
298.81739183952140593
298.80283194043613548
298.78728088294195686
298.77283222432077991
298.76146636026578562
298.75460622831781166
298.75285319070098922
298.75585753224515884
298.76247103887266121
298.77109275634853702
298.78005908938564517
298.78802973886917016
298.79421870814240947
298.79839087551789589
298.80052059207980619
298.80051421179223325
298.79813452333917212
298.79308198121202622
298.78515254174101301
298.77443600941711566
298.76152862792008591
298.74763065955306729
298.73428125466057281
298.72292976921420404
298.71450989935914322
298.70917408278694438
298.70630041874278504
298.70471215168043955
298.70306146124903535
298.70022795169296614
298.6957100625444923
298.68972601426065694
298.68299694106138986
298.67634523354132625
298.67034766065825124
298.66519636875727883
298.66068892817082769
298.65644032148912856
298.6521538985093116
298.64787847202973126
298.64416418344114845
298.64183578523949336
298.641654715680545
298.64400570868616569
298.64870044825806872
298.65493840678846027
298.66142269253049335
298.66668441737976991
298.66953261410321829
298.66946080750039982
298.66681569424355303
298.66272174859625466
298.65880607297231109
298.65681125238626237
298.65812605204632746
298.66337552837575231
298.67226338354515747
298.68374416300451912
298.69631250690656543
298.70828983234838461
298.71823050915935482
298.72520595049292069
298.72880067510288882
298.72906112958776248
298.7264303621764725
298.72153314962349668
298.71495800117099861
298.70716396526751168
298.69853303643816389
298.68944430092227549
298.68036725551212385
298.67190726349036822
298.66475387234248728
298.65949018584910846
298.65646964340447767
298.6557138320228546
298.65687847833436308
298.6593629404441117
298.66264299481076705
298.66650725176191372
298.67111899349106352
298.67697660076709099
298.68478208883448133
298.69513148224513088
298.70823042193336505
298.72365736209593479
298.74036579169194283
298.75693902609651786
298.77198396101999833
298.78457645902665263
298.79444715096275331
298.80207956153032001
298.80839299537410625
300.09943352817975892
300.66182460521929443
300.69901581440024074
300.50235161910586612
300.48678874799270488
300.4601994624811141
300.32314545960377927
300.14909244090608809