/*--------------------------------*- C++ -*----------------------------------*\
  =========                 |
  \\      /  F ield         | OpenFOAM: The Open Source CFD Toolbox
   \\    /   O peration     | Website:  https://openfoam.org
    \\  /    A nd           | Version:  12
     \\/     M anipulation  |
\*---------------------------------------------------------------------------*/
FoamFile
{
    format      ascii;
    class       volScalarField;
    location    "0.0056";
    object      alphat;
}
// * * * * * * * * * * * * * * * * * * * * * * * * * * * * * * * * * * * * * //

dimensions      [1 -1 -1 0 0 0 0];

internalField   nonuniform List<scalar> 
75962
(
5.5292489063918568091e-07
6.6581952786448176692e-07
7.2746639654537888322e-07
8.4578625869097341021e-07
9.9899979007792318438e-07
1.0983210284775984429e-06
1.1604784986138937762e-06
1.2307607601042156465e-06
1.3268292188508202952e-06
1.4498985671063037692e-06
1.5873990504717003481e-06
1.7114357146771734016e-06
1.8164238250913669166e-06
1.9344221259130305374e-06
2.0746145465921510387e-06
2.1935590754799313454e-06
2.254376741880509573e-06
2.2798974999031945212e-06
2.3212580961828013006e-06
2.3883883728538257661e-06
2.4729871646320812906e-06
2.5689649789127882223e-06
2.6661282712100958686e-06
2.7493060519215177572e-06
2.8156579123917669237e-06
2.8960726503220882977e-06
3.0249492342252113623e-06
3.1938411824571821324e-06
3.355178965819684274e-06
3.4709920403877376125e-06
3.5394030985689261539e-06
3.5811711398371507539e-06
3.6174277241746019351e-06
3.6637664348117311273e-06
3.7307699878557946568e-06
3.8202983238098342592e-06
3.9244631082451210405e-06
4.0272628469442135391e-06
4.1114026898327842081e-06
4.1652014050656266991e-06
4.193108536100465917e-06
4.2190647383931814346e-06
4.2756616799547941745e-06
4.4250014513307327568e-06
4.6453023458378195072e-06
4.8358135640667445089e-06
4.9633470949238024333e-06
5.0329634381733229139e-06
5.071279542218149688e-06
5.0976234935710244031e-06
5.1166269123372441164e-06
5.1296841842881280008e-06
5.1441928237437242874e-06
5.1723072525028454058e-06
5.2398968613421563698e-06
5.4068733835352193322e-06
5.5757164985264286047e-06
5.6807823953038989869e-06
5.7255072081909021267e-06
5.7580667418148638337e-06
5.8344924053871331042e-06
6.0771783818206608446e-06
6.4389608297203030447e-06
6.6689455745573647752e-06
6.7670487817515837637e-06
6.7870132275794461374e-06
6.7815199640091329154e-06
6.7670105299097906145e-06
6.751432920865469728e-06
6.7472428118019148229e-06
6.7497406269149748658e-06
6.7778625801810043103e-06
6.9021268116621801937e-06
7.0665766253658805849e-06
7.1397677285305607435e-06
7.1488942294310800485e-06
7.1351740808027889123e-06
7.1064276349486721647e-06
7.0986697368542037352e-06
7.1116663571491106884e-06
7.1897431652756810052e-06
7.37464505387669555e-06
7.553958600920284962e-06
7.7020927429713922636e-06
7.7996824569030869813e-06
7.8426646695994858214e-06
7.8558760971300115527e-06
7.8801084160856682602e-06
7.9610726488043414152e-06
8.2369735523795604e-06
8.5992453951391524807e-06
8.8152069906984981503e-06
8.8939391103010637584e-06
8.8961027879469831435e-06
8.8698228221570358495e-06
8.8319530501643718685e-06
8.8240198101782125529e-06
8.8606595634293174751e-06
9.0625194270360381904e-06
9.3494660775736722195e-06
9.5015501630455453453e-06
9.5475490802086604425e-06
9.5470119033986805248e-06
9.5415348136246325996e-06
9.5463897140222442984e-06
9.5828196738885499181e-06
9.6056285678557412502e-06
9.5976340171382758671e-06
9.5487559010153083951e-06
9.4326747041783208199e-06
9.3701794961551525449e-06
9.3534639978610581716e-06
9.3601142944700371529e-06
9.431984328918123126e-06
9.5144593250275817935e-06
9.5549412878309343891e-06
9.570786704646224268e-06
9.5750247361389749859e-06
9.5742291041202137443e-06
9.5690347467829886085e-06
9.5553162533261892136e-06
9.5237482636389417576e-06
9.4835504289117855383e-06
9.453499293912623867e-06
9.4344805870129206787e-06
9.4246506766834522116e-06
9.4192875613757622922e-06
9.4213837784938324257e-06
9.444681491026582707e-06
9.4818556223390977475e-06
9.522107021426771427e-06
9.5715981710249910806e-06
9.629612975474644487e-06
9.6898580298273981657e-06
9.743641149443200099e-06
9.7842341358340065429e-06
9.8092980173022714863e-06
9.8211751359993254437e-06
9.825637072859797955e-06
9.8297433882980170429e-06
9.8407210745994906073e-06
9.876294203689784705e-06
9.9441086368864773591e-06
1.0011537828149928421e-05
1.0069551654087536063e-05
1.0115454885882546181e-05
1.0152098710124293134e-05
1.018524965684943348e-05
1.022154955936803855e-05
1.0263605562131101147e-05
1.0309373483335686333e-05
1.0353679644976518799e-05
1.0390220397753381005e-05
1.0414946928748043586e-05
1.0427957924112787717e-05
1.0433266301509084762e-05
1.0437945508264027749e-05
1.0449457998698263433e-05
1.0473163903221903128e-05
1.051138076267956961e-05
1.0562496442654681608e-05
1.0621700397767676915e-05
1.0682577786718884169e-05
1.0738555647340763605e-05
1.0785206739951681831e-05
1.0820368388776487682e-05
1.0844330191544140337e-05
1.0860113037363172331e-05
1.087152906892810586e-05
1.0882619318145525961e-05
1.0897148114188180302e-05
1.0918346019262246797e-05
1.0947111017652467172e-05
1.0982966007331290426e-05
1.102306547034239514e-05
1.1064608337309587977e-05
1.1102648494110121222e-05
1.1134673416001378556e-05
1.115823726044301963e-05
1.1174597520935643629e-05
1.118556262387917927e-05
1.1194607947523969144e-05
1.1204644771373126628e-05
1.1217457631391738237e-05
1.1234783568532764341e-05
1.1257454332883967967e-05
1.1286408120101283829e-05
1.1321352053684894076e-05
1.1253232464827695312e-05
1.1241691998589530129e-05
1.1230241051516654107e-05
1.1218708154587451637e-05
1.1206681451860069998e-05
1.1193866083343994889e-05
1.1180031412590369811e-05
1.1165346460788026127e-05
1.1150125720431445866e-05
1.1135022761501797554e-05
1.1120388488017585285e-05
1.1106427082359496733e-05
1.109279474470818255e-05
1.1079360871085950344e-05
1.1065885104929331061e-05
1.1052552089056317543e-05
1.1039201134954132848e-05
1.1025959543581147893e-05
1.1012611796930154236e-05
1.0999267001154466541e-05
1.0985582739119895471e-05
1.097156200610454223e-05
1.0956923042942118764e-05
1.09420050738699635e-05
1.0926847458047296764e-05
1.0911994512931743318e-05
1.0897410279419712201e-05
1.088344772299177389e-05
1.0869634620795561177e-05
1.0855848978833738659e-05
1.0841259692983876807e-05
1.0825856824043667145e-05
1.0809408537134232862e-05
1.0792733910300192287e-05
1.0776212379050104922e-05
1.0760798624755121871e-05
1.0746468337359406416e-05
1.0733470988693242281e-05
1.0721032672369587018e-05
1.070898231114661905e-05
1.0696613782086444392e-05
1.0684247318553797803e-05
1.0671701994654331328e-05
1.0659502328995154599e-05
1.0647190487396057575e-05
1.0634890661368208957e-05
1.0621878362292870078e-05
1.0608462775430331187e-05
1.0594354563878359804e-05
1.0580374543376460446e-05
1.056648443888125737e-05
1.0553366905915255686e-05
1.0540473369924737617e-05
1.0527960633718508047e-05
1.0514980984534895976e-05
1.0501822583892944939e-05
1.0487904479379742486e-05
1.0473807555280665189e-05
1.0459137306476731278e-05
1.0444557090731349325e-05
1.0429635585181332678e-05
1.0414913395357423769e-05
1.0399921168582715333e-05
1.038533009707325112e-05
1.037085001927299041e-05
1.0357191494649892357e-05
1.0343924420230505871e-05
1.0331506718610034093e-05
1.0319352840801839359e-05
1.03077628055708158e-05
1.0296104992261478103e-05
1.028460592517009858e-05
1.0272731663653846863e-05
1.026085927003549083e-05
1.0248675242637540097e-05
1.0236623074606869476e-05
1.0224299658530950656e-05
1.021201037006840378e-05
1.0199246288358207579e-05
1.018638706426426674e-05
1.0173027345641875039e-05
1.0159685020443031035e-05
1.0146024059367561541e-05
1.0132669218815363579e-05
1.0119293860329337423e-05
1.0106514893973452037e-05
1.0093759021709284353e-05
1.0081366977436640941e-05
1.0068490051686544606e-05
1.0055394990311225463e-05
1.0041395905385283927e-05
1.0027049256612654529e-05
1.0012045758948003715e-05
9.9972598884281024735e-06
9.9826397476055957496e-06
9.9690345498626425365e-06
9.9560999548967248762e-06
9.9440940627685333876e-06
9.9321252308470926571e-06
9.9201845448166957813e-06
9.9076174075775239552e-06
9.8948832122598082963e-06
9.8818151752187382924e-06
9.8690309802628631405e-06
9.8563071853716527441e-06
9.8439606207442649646e-06
9.8315607817227375923e-06
9.8192699877924940035e-06
9.8067529631775724228e-06
9.7943480036675086958e-06
9.7819836891062316125e-06
9.7700215723391057861e-06
9.7582645653893720667e-06
9.7466807719270013481e-06
9.7348598271531772543e-06
9.7227036004555076693e-06
9.7100088878566780505e-06
9.6971570577683974376e-06
9.6842975628759023909e-06
9.6721107623026363775e-06
9.6605243004099543497e-06
9.649844660355976747e-06
9.6394264394974737444e-06
9.6292733178925770098e-06
9.6186623346616393205e-06
9.6077582466255212224e-06
9.5961249260957294521e-06
9.5842267488566024175e-06
9.5719279849488027605e-06
9.5597194812414738185e-06
9.5474338536743984636e-06
9.5352677514407658882e-06
9.5230497500750737721e-06
9.5107745363333943056e-06
9.4983145688535412142e-06
9.4856401863566899705e-06
9.4726686443609979554e-06
9.4596320900586563645e-06
9.4463268635799636899e-06
9.4331819017443632849e-06
9.4197514393142311496e-06
9.406507992947282516e-06
9.3931017883876734639e-06
9.3799811152112307235e-06
9.3671083739452382121e-06
9.3546689313508923338e-06
9.3427826853681394893e-06
9.3314082729035178381e-06
9.3205097870359497598e-06
9.3099490790954888333e-06
9.299439449388733611e-06
9.288886200177875262e-06
9.2781448895997923324e-06
9.2670884479965798822e-06
9.2559353839200309857e-06
9.2443865464618617218e-06
9.2328905281584786887e-06
9.2211279172589219309e-06
9.2095624062785248553e-06
9.197938309004035696e-06
9.1867967356809157934e-06
9.1757444283104018897e-06
9.1653979896369820767e-06
9.1550002556903879546e-06
9.14505767371969848e-06
9.1347661063751033072e-06
9.1245343628962925466e-06
9.1137485203761973128e-06
9.1030288614044034968e-06
9.0916346441336815009e-06
9.0807630824921778802e-06
9.0693982145231534048e-06
9.0589559779685939023e-06
9.0483349528827997505e-06
9.0387359258407091507e-06
9.0288956916162662356e-06
9.0199545887566105388e-06
9.010476974448620912e-06
9.0016732144757946751e-06
8.9921694459673938708e-06
8.9832369778287721971e-06
8.9735890386625951075e-06
8.9644524987728105747e-06
8.9544576471285581952e-06
8.9448422533807440206e-06
8.9342021304940419656e-06
8.9239223906434328291e-06
8.9126814248584261525e-06
8.9020618475499802436e-06
8.8907217151619640888e-06
8.8803400069023289364e-06
8.8693764202967094598e-06
8.859568906277765315e-06
8.8489212687731392322e-06
8.8392619887414121535e-06
8.8284437414741252087e-06
8.8183101980872408588e-06
8.8068362016287259108e-06
8.7961123476871177313e-06
8.784215820261417982e-06
8.7733912282473544607e-06
8.7618735572713152672e-06
8.7516013977520916455e-06
8.7407760174472274201e-06
8.7311561481010494445e-06
8.7207910286924499271e-06
8.7115921770677681935e-06
8.7015542868967701102e-06
8.6927205502644360797e-06
8.6830717323522575832e-06
8.6746172130936839603e-06
8.6652218725796697438e-06
8.6568290027171639772e-06
8.6470956905212996598e-06
8.6381079430140557168e-06
8.6274277979698820649e-06
8.6174978787413242985e-06
8.6060416465593550842e-06
8.5956411696525813598e-06
8.5841092655857179327e-06
8.5740246447720370944e-06
8.5631437847959837763e-06
8.5540230229735759039e-06
8.5443242596681324877e-06
8.5363401680588356824e-06
8.527572718110346185e-06
8.5200800352528694695e-06
8.5112659205377703953e-06
8.5033349436528758307e-06
8.4938618053284128267e-06
8.4851221017962667677e-06
8.4749388768731824929e-06
8.4656383060703170064e-06
8.4549818728313558876e-06
8.4453279496002574267e-06
8.4344298435001602776e-06
8.424533993165823155e-06
8.4134260079405705771e-06
8.4034008142625891827e-06
8.3923515725954366164e-06
8.3826448913532723554e-06
8.3720107543925907694e-06
8.363062812269014926e-06
8.3530683571258335226e-06
8.3447971012727688468e-06
8.3353475551070415407e-06
8.3275793949292138902e-06
8.3184802383026319039e-06
8.3108169042278446905e-06
8.3018120209754633166e-06
8.2941243563136755407e-06
8.2850984620304442898e-06
8.277391509782273203e-06
8.2684532144226690362e-06
6.3513638110759976932e-07
7.4978533261207993094e-07
7.9496960623944359236e-07
8.619284067717542483e-07
1.0072604494195314702e-06
1.1565960083939740738e-06
1.2761781665222804632e-06
1.3719771545485081296e-06
1.450431294168883051e-06
1.5432534971041586735e-06
1.6688391902229806623e-06
1.7883377752117139928e-06
1.873112282556218361e-06
1.961609191338841532e-06
2.0948611851475668671e-06
2.2471917165713015662e-06
2.3609445642230220835e-06
2.4173861027876018509e-06
2.4465178299448766668e-06
2.4940249439922009731e-06
2.5957219816196355094e-06
2.7208699955904702339e-06
2.8181461999859100825e-06
2.8724815594732920943e-06
2.9176459242000805787e-06
3.0047271146343439269e-06
3.1744058627924759049e-06
3.3938676238650529336e-06
3.5920482524636482523e-06
3.7204471958638865554e-06
3.7790273918925636056e-06
3.7985545005440192474e-06
3.8100974752009954163e-06
3.8346919760500067172e-06
3.89104414409196971e-06
3.9885503535329074181e-06
4.1100990726828422406e-06
4.2321366087365564726e-06
4.3311874857384936719e-06
4.3932571639988971391e-06
4.4210737904983153187e-06
4.4354202141168267847e-06
4.4641524100012573364e-06
4.5457331950746809667e-06
4.7671750550363128362e-06
5.0142742026370837772e-06
5.1893074176761225881e-06
5.2855181970522664738e-06
5.3235498129148588992e-06
5.3335552579008566659e-06
5.336564593757949289e-06
5.3430782402006320148e-06
5.3596494691787562311e-06
5.3999299025812365585e-06
5.5108340152444893571e-06
5.7130298390765342013e-06
5.8929786457923922149e-06
6.0103165754244545219e-06
6.0618767580195165995e-06
6.088480958356449235e-06
6.1422040306171226258e-06
6.3052622690579766923e-06
6.648559721785177591e-06
6.899503850454643198e-06
7.0240187625812612021e-06
7.0613321520297573321e-06
7.0622779866051488189e-06
7.0563910585424952391e-06
7.0510988134385614305e-06
7.0494642497521646513e-06
7.054995725290699015e-06
7.0882454107590816381e-06
7.2158024285053351255e-06
7.3767773209947370007e-06
7.4578160173262219923e-06
7.4745169896349256011e-06
7.466448233341064746e-06
7.4455053684829291681e-06
7.4352692666791483613e-06
7.4378690347501481343e-06
7.4832716685982324001e-06
7.6582745810806273983e-06
7.9078045594090034485e-06
8.106531449570608257e-06
8.2351272878111997768e-06
8.2924032013964830707e-06
8.3095765209455085555e-06
8.3351931246831721846e-06
8.4182303729199588725e-06
8.6795233416922083915e-06
8.9876691571659695121e-06
9.1718237937713194486e-06
9.2367845954394393583e-06
9.2357230533924930673e-06
9.2094104329372970287e-06
9.180647861988781058e-06
9.178198163551649547e-06
9.2455376882075418732e-06
9.5355698397240651364e-06
9.8587075551054900447e-06
1.0021562059949349886e-05
1.0068407076998936309e-05
1.0066490015319228064e-05
1.006262095135003583e-05
1.0080291943957622381e-05
1.0156898988487187346e-05
1.0199470704485698812e-05
1.0193942442034606739e-05
1.0145848592702573593e-05
1.0015973925813711172e-05
9.9394459042697839567e-06
9.9194583487106900325e-06
9.9267240280040713624e-06
1.0004638643982634021e-05
1.0092666708994057421e-05
1.0132637611617600033e-05
1.0145310339831968048e-05
1.0146597651280957046e-05
1.0143800807750011508e-05
1.0134073726740693754e-05
1.0105125891894543909e-05
1.005217719276838714e-05
1.0009683499457424502e-05
9.9826088520967627839e-06
9.96895100596691671e-06
9.9622084893768643069e-06
9.9608863561478994201e-06
9.9645549902015716632e-06
9.9725459872379009304e-06
9.9949229038846517748e-06
1.0037502368521370957e-05
1.009714611836450884e-05
1.0162508231039761e-05
1.0220664163115684322e-05
1.0262584514131919611e-05
1.0285928905704687567e-05
1.0295948897676271733e-05
1.0301905087410162071e-05
1.0313102160803411375e-05
1.0340108381265792289e-05
1.0385789846439893389e-05
1.0440030081846380047e-05
1.0496449361079000868e-05
1.0549183026821673404e-05
1.0594825608128829807e-05
1.0633731181071264129e-05
1.0670209289518325774e-05
1.0709518328362019457e-05
1.0755674551212265509e-05
1.0808254136475856327e-05
1.0863264724226308751e-05
1.0913307077576691714e-05
1.0952922065305633717e-05
1.0978435435215301905e-05
1.0990313722581006214e-05
1.0992197405641904634e-05
1.0991553337538671834e-05
1.0996295662617282677e-05
1.1013365751794984722e-05
1.1046968858799861439e-05
1.1097492150690273146e-05
1.1161668512743626661e-05
1.1232484225503007425e-05
1.1302077399921857756e-05
1.136260434929033564e-05
1.1408244666957012895e-05
1.1436748394689191024e-05
1.1449434055430116123e-05
1.1451612180310073673e-05
1.1450710339596749781e-05
1.1455496824128981275e-05
1.1472479919429856048e-05
1.150126079695981198e-05
1.1539437015187803425e-05
1.1583824435657367628e-05
1.1629471125820581347e-05
1.1672087473610673699e-05
1.1707183586466373668e-05
1.1734183042140480761e-05
1.1753054238341456328e-05
1.1767034412330381021e-05
1.1779053047389255736e-05
1.1792020529056825918e-05
1.1807963151647184964e-05
1.1828509875031782212e-05
1.1854881648822630051e-05
1.1887627773574291053e-05
1.1926880438184425838e-05
1.1970826888636903486e-05
1.1858575499951039712e-05
1.1845758832520097607e-05
1.1832679586453134332e-05
1.1819469989948667117e-05
1.1806267383185999853e-05
1.1792820501182023699e-05
1.1778822247808262249e-05
1.1763920929821592459e-05
1.1748269512083991123e-05
1.1732212835363156226e-05
1.1716414130887447826e-05
1.1701233956356453297e-05
1.1686905974327437249e-05
1.1673140196950658752e-05
1.1659668818788296833e-05
1.1646074768232971466e-05
1.1632329837151824853e-05
1.1618334979830713315e-05
1.1604277637499817299e-05
1.1590076320253886132e-05
1.1575837367092535712e-05
1.1561337070006958124e-05
1.1546583971037971744e-05
1.153141413966486663e-05
1.1516032268506839207e-05
1.1500468170786357216e-05
1.1485055656750090477e-05
1.146984360473637154e-05
1.1455076396041298948e-05
1.1440386744539378684e-05
1.1425494781047824901e-05
1.1409731941184052565e-05
1.1393093818192126176e-05
1.1375621928701067898e-05
1.1358085984280614096e-05
1.1340997955197122164e-05
1.1325110320691007313e-05
1.131043263554905106e-05
1.1296934684148907785e-05
1.1283864069858907155e-05
1.1270828485063927733e-05
1.1257297747326610153e-05
1.1243504100656427722e-05
1.122957853853276328e-05
1.1216007634018780638e-05
1.1202705414879404706e-05
1.11896969128967161e-05
1.117648840684539916e-05
1.1163003393809164244e-05
1.1148992730643955099e-05
1.1134810667036239818e-05
1.1120634183917271355e-05
1.1106875801425527444e-05
1.10934202672545083e-05
1.1080211604738565695e-05
1.1066822692282057963e-05
1.1053164202593271891e-05
1.1038965415966619713e-05
1.1024308529287528272e-05
1.1009084044712018764e-05
1.0993473503528974604e-05
1.0977480514854985499e-05
1.096139490723568188e-05
1.0945414500563617347e-05
1.0929958156328204729e-05
1.0915198903532392452e-05
1.0901306337796740935e-05
1.0888129041827462025e-05
1.0875628690867662643e-05
1.0863524747286692202e-05
1.0851682718705755472e-05
1.0839762310761821257e-05
1.0827633408296134953e-05
1.0815146642620307224e-05
1.0802394857555934393e-05
1.0789426935775086358e-05
1.0776368040599471439e-05
1.0763199156917643769e-05
1.0749948958698576148e-05
1.0736528957984899779e-05
1.0722951399406812205e-05
1.0709098061490485593e-05
1.0694996666397903537e-05
1.068060984479889648e-05
1.0666129052056834398e-05
1.0651685755593078188e-05
1.0637539319076853224e-05
1.0623711188081822493e-05
1.0610231750659124457e-05
1.0596801958948548605e-05
1.0583253100239458416e-05
1.0569261828977010776e-05
1.0554839810226705331e-05
1.0539991477104649427e-05
1.0525012446034413748e-05
1.0510219156118641581e-05
1.0495970015428161747e-05
1.0482405758198347725e-05
1.0469412339059324551e-05
1.0456618693288351101e-05
1.0443641824928370494e-05
1.0430323915607090049e-05
1.0416745698695744504e-05
1.0403172231208289154e-05
1.0389788979525588997e-05
1.0376677962322985096e-05
1.0363724564193190573e-05
1.0350846169313852963e-05
1.0337869417856623128e-05
1.0324853082338129499e-05
1.0311790801937981501e-05
1.0298944697434144637e-05
1.0286334330397726761e-05
1.027407456797703915e-05
1.0261779683406730654e-05
1.0249287465157256766e-05
1.0236167011720984503e-05
1.0222551663696620078e-05
1.0208612342981165759e-05
1.019493587328310171e-05
1.0181939541368909159e-05
1.0169900353864207957e-05
1.0158668222834260495e-05
1.0147860139816637382e-05
1.0136994926689565404e-05
1.0125687583478731852e-05
1.011374223798657744e-05
1.0101233612056762548e-05
1.0088262801754642502e-05
1.0075206634710733315e-05
1.0062142273924179977e-05
1.0049372737234706448e-05
1.0036642970935538984e-05
1.0024131869567710882e-05
1.0011407818032053174e-05
9.9986488273697269783e-06
9.985454222755946947e-06
9.9720370719010845481e-06
9.9583149943469988886e-06
9.9444780693282026061e-06
9.9305987300098540606e-06
9.9166832947774127957e-06
9.9027543921210537341e-06
9.8888475237216837171e-06
9.8749201714923257278e-06
9.8613390819676103373e-06
9.8479030279084354781e-06
9.8351988519495159318e-06
9.8228248032018509962e-06
9.8112040279362302522e-06
9.7997691248470685053e-06
9.7886818355996369054e-06
9.777403280772596343e-06
9.7662064039484857043e-06
9.7545316570687336656e-06
9.7429658883742221911e-06
9.7307907691302913966e-06
9.7189179541742337648e-06
9.7066180545370146619e-06
9.6948636378390719401e-06
9.6828655241561352294e-06
9.6715375461312775055e-06
9.6599665598817064272e-06
9.6491117058097601898e-06
9.6378800302430385922e-06
9.6271585670654104966e-06
9.615794260336718726e-06
9.6046527867057378616e-06
9.5927129343582748033e-06
9.5811005911834645554e-06
9.5686774150555690575e-06
9.5570797216160953099e-06
9.5449100806729185643e-06
9.5339784905757200481e-06
9.5227804995576739987e-06
9.5128945192081051224e-06
9.5026035142765784047e-06
9.4934378448716808457e-06
9.4834787958235694711e-06
9.4743813707669547169e-06
9.4643260662076150437e-06
9.4549767640576821948e-06
9.4446633924408592069e-06
9.4350321011271326172e-06
9.4243190192355414216e-06
9.4141866110303189453e-06
9.4028198851195206098e-06
9.3919542559929079079e-06
9.379893658005033328e-06
9.3686034864678083701e-06
9.3564100737474281358e-06
9.3454298096913927097e-06
9.3337233334737979739e-06
9.3234811122511874706e-06
9.3123111899021616733e-06
9.3023946092010198738e-06
9.2911738585855664906e-06
9.2808291296351792479e-06
9.2689404377765999721e-06
9.257951325950703489e-06
9.2455619845862037592e-06
9.2344495878797441276e-06
9.2223421390784084215e-06
9.2116766017457951145e-06
9.200151172952899289e-06
9.1899906211441572404e-06
9.1787982194390371884e-06
9.1689116830105071545e-06
9.1579151502015677152e-06
9.1482762866225013397e-06
9.1375695852649913725e-06
9.1283089194374647518e-06
9.1179260473839317865e-06
9.108925733397233259e-06
9.0984912867306626374e-06
9.0891332519510879357e-06
9.0780025271786855259e-06
9.0679198864030389907e-06
9.0561033341170836899e-06
9.0455856227142766168e-06
9.0337033888747245868e-06
9.0234427146147473084e-06
9.0121301154643957131e-06
9.0027031278810576469e-06
8.9924663570084353045e-06
8.9841076658689052946e-06
8.9747050891447265432e-06
8.966823852030029836e-06
8.95738135324686903e-06
8.9490319244980439067e-06
8.9388915987344702032e-06
8.9297205575371943904e-06
8.9188201842785904127e-06
8.9090101745544622775e-06
8.8975893614817279652e-06
8.887414398665300074e-06
8.8757609504942977383e-06
8.8653839303682092536e-06
8.8536280157440785368e-06
8.843222031146415012e-06
8.8315531543001905607e-06
8.8214864567228928009e-06
8.8102282453174135448e-06
8.8008094685464765606e-06
8.7900671182907299405e-06
8.7812075184405073691e-06
8.7708897728228077173e-06
8.7623936618401846203e-06
8.7523472998113497668e-06
8.7439609718772470722e-06
8.7340588469118114344e-06
8.7257791704537826483e-06
8.716071314024797091e-06
8.7079865053284861119e-06
8.6984971613354411356e-06
6.3983367661378662258e-07
7.4044897028899875988e-07
8.0951647838210301552e-07
9.0885519079640131017e-07
1.0809559165834226038e-06
1.2526352143420809544e-06
1.3662110858161209243e-06
1.4232438203062404388e-06
1.4639143455129874218e-06
1.5366039214700727571e-06
1.7149895209716806074e-06
1.9455881279102265568e-06
2.0817416621452988128e-06
2.1708917698313297411e-06
2.2839303191861399734e-06
2.4058968787661921438e-06
2.4902606847267481335e-06
2.5297852641690663163e-06
2.5547177755275999594e-06
2.602038492451178989e-06
2.7180612281422784888e-06
2.8701639320785865416e-06
2.9762268020913868173e-06
3.0337035327627268728e-06
3.0812062956817966193e-06
3.1731169645281676847e-06
3.3323115438334189022e-06
3.5291489468391298204e-06
3.7116529500715401649e-06
3.8463480783961353306e-06
3.9309253159070506916e-06
3.9827951210378130254e-06
4.0190234445892993482e-06
4.055565270674423924e-06
4.1147430570846088338e-06
4.2095548092220973053e-06
4.3304909242809481076e-06
4.4506769822591812273e-06
4.5428158979457049894e-06
4.5935116701026039855e-06
4.6133812330969604514e-06
4.6321193449692555188e-06
4.6804620424498402127e-06
4.8338998003689274396e-06
5.1700200245939431583e-06
5.4379215094605767589e-06
5.5835397412136717323e-06
5.6301508619467764236e-06
5.6321493916816446349e-06
5.6235237165537881089e-06
5.6157909023609994191e-06
5.6153146509964646345e-06
5.6317729692510560202e-06
5.7047811736063885516e-06
5.8905172741995427043e-06
6.0672360035434414743e-06
6.1941566988024198995e-06
6.2657199064778053524e-06
6.2951411732123581952e-06
6.3180301574474514309e-06
6.371445779355507181e-06
6.5437441085316224842e-06
6.884361154705279452e-06
7.1229131303914825407e-06
7.2390804909445671225e-06
7.274016254227669783e-06
7.2768730912073346673e-06
7.2756711969750583553e-06
7.278314238303058678e-06
7.2941881820603393313e-06
7.3568764932407140463e-06
7.5184248612182797135e-06
7.6638095836056911682e-06
7.7514776887411739276e-06
7.7827199129677447338e-06
7.7805783004313897977e-06
7.7658276372523747649e-06
7.7494949884420581432e-06
7.7475250315948202044e-06
7.7760890721460243833e-06
7.9159257947708025894e-06
8.2022229750610871899e-06
8.4417436288823680622e-06
8.6122538420403066606e-06
8.70714095986661726e-06
8.7401034361319954158e-06
8.7503075401621912768e-06
8.7805493252523210895e-06
8.8955094390892771022e-06
9.2453780719081889356e-06
9.5694104114376881684e-06
9.7218318639146142091e-06
9.752024323214701049e-06
9.7349451640564857652e-06
9.6696004543783796589e-06
9.6244713682067042378e-06
9.6210079155844712594e-06
9.698117814890277349e-06
1.003118987538662268e-05
1.0396428233349446331e-05
1.0575010880792728022e-05
1.0621129051892933107e-05
1.0615390129178722386e-05
1.0610518465611753298e-05
1.0637657243816196537e-05
1.0748711489459100921e-05
1.0814313534677287673e-05
1.0810873646958978962e-05
1.0761320252624452146e-05
1.0607336297814237442e-05
1.0494797689731254835e-05
1.045882210872576141e-05
1.0452822658219594064e-05
1.0480350029854618505e-05
1.0555279550843199395e-05
1.0612631238909034769e-05
1.0656073858510186752e-05
1.068950612152277642e-05
1.0708859244346863424e-05
1.0711446900830633473e-05
1.0700836507370202182e-05
1.0680138787108093916e-05
1.0633130552966640531e-05
1.0571324838986770098e-05
1.0535577377066586075e-05
1.0521613066919385601e-05
1.0517291372001876727e-05
1.0521444351493425723e-05
1.0548375700737355767e-05
1.0570681329914797912e-05
1.0580197676427270079e-05
1.0590085515500092188e-05
1.0611998528765976082e-05
1.0661925106285552334e-05
1.0724212824553467946e-05
1.0782799431721954629e-05
1.083342905814399355e-05
1.0877666177865469966e-05
1.0919959772740647969e-05
1.0964215891197746759e-05
1.1011329079031543569e-05
1.1058398941480795537e-05
1.110208886438751442e-05
1.1140093351713407138e-05
1.1172469071182524912e-05
1.1201828482874592679e-05
1.1232512766031726005e-05
1.12687804488366566e-05
1.1312622859570384287e-05
1.1363317452140334196e-05
1.1416714952851987586e-05
1.1468231703703640507e-05
1.1514162740961984382e-05
1.1552605798142385609e-05
1.1584129660167550945e-05
1.161207263197397237e-05
1.1639873090001598923e-05
1.167069130558705824e-05
1.1706301423737081106e-05
1.1746441926639036949e-05
1.1789443055818158603e-05
1.1833038192142263933e-05
1.1874756144433774413e-05
1.1912357164512216612e-05
1.1944583972069548015e-05
1.1970456599136733775e-05
1.1991112270897135892e-05
1.200891073581484654e-05
1.2027828121596968603e-05
1.2052100997597520228e-05
1.2084120909596392923e-05
1.2124861771588383045e-05
1.2172998812853063496e-05
1.2224958594965048558e-05
1.227610591590892442e-05
1.2321498586665234536e-05
1.2359132506605791967e-05
1.2386470947671977997e-05
1.2404923476304427504e-05
1.241612820983518016e-05
1.2424080825033553924e-05
1.2431359481923073612e-05
1.2440481103820051032e-05
1.2453981077862842362e-05
1.2472688683507418217e-05
1.2497720328363518428e-05
1.2529468731855612787e-05
1.256727078722788485e-05
1.260911524145599153e-05
1.2488939256278571425e-05
1.2474408674218616098e-05
1.2459119793678161657e-05
1.2443637352640068636e-05
1.2428221061218701289e-05
1.2413037800507874494e-05
1.2397596923113633343e-05
1.23817488838910659e-05
1.2365306201201598874e-05
1.2348707707857050101e-05
1.2332187173495166369e-05
1.2316354091678441998e-05
1.2301270051557812869e-05
1.2287079108922764132e-05
1.2273187519081050689e-05
1.2259367650900567187e-05
1.2245084453561762535e-05
1.223054884872943788e-05
1.2215576875199076097e-05
1.2200522276592726798e-05
1.2185114795494029436e-05
1.2169615989197983576e-05
1.2153758344942264103e-05
1.2137921865993278568e-05
1.2121872235503284226e-05
1.2105935900408441614e-05
1.2089826948373451516e-05
1.2074035087622191279e-05
1.2058275965749465952e-05
1.2042757996850508975e-05
1.202662293900597631e-05
1.2009902653503217381e-05
1.1992112308092980601e-05
1.1974052460911300909e-05
1.1955833291307339667e-05
1.1938536177798174783e-05
1.192211059866654237e-05
1.1907120317758841362e-05
1.189269469023840132e-05
1.1878708306724245926e-05
1.186409144656319574e-05
1.184918180432649271e-05
1.1833666331714429764e-05
1.1818517525438660947e-05
1.1803565370357327102e-05
1.1789505379074550418e-05
1.1775653622353733958e-05
1.1762274716456677174e-05
1.1748429120948735983e-05
1.1734484628148927644e-05
1.1719837432559673896e-05
1.1705328612971778457e-05
1.1690607625440700609e-05
1.1676489210915980122e-05
1.1662299048094672092e-05
1.1648572560238523781e-05
1.163437607641918642e-05
1.1620171752672396097e-05