/*--------------------------------*- C++ -*----------------------------------*\
  =========                 |
  \\      /  F ield         | OpenFOAM: The Open Source CFD Toolbox
   \\    /   O peration     | Website:  https://openfoam.org
    \\  /    A nd           | Version:  12
     \\/     M anipulation  |
\*---------------------------------------------------------------------------*/
FoamFile
{
    format      ascii;
    class       volScalarField;
    location    "0.0056";
    object      k_0;
}
// * * * * * * * * * * * * * * * * * * * * * * * * * * * * * * * * * * * * * //

dimensions      [0 2 -2 0 0 0 0];

internalField   nonuniform List<scalar> 
75962
(
3.4064656062533256583e-05
4.9235464347927851078e-05
5.8888188026609841828e-05
7.9698314250908859147e-05
0.0001111387025366333657
0.00013454945437185988205
0.00015051297687023056549
0.00016963838334085103729
0.00019761998224062364169
0.00023651751693928274698
0.00028398175322022950516
0.0003305165293691393353
0.00037277850546133721541
0.00042318992216009999321
0.00048702561190345046915
0.0005449768633069896652
0.00057674610918912708364
0.00059117380088803076627
0.00061343050064989533381
0.00064943691436369422373
0.00069675875373948370928
0.000753475745464746334
0.00081392641933361055927
0.00086806098872161177853
0.00091269497469247237633
0.00096725603827513848085
0.0010565155434641693415
0.0011791903508792576059
0.0013034726324689857851
0.001397965882067628068
0.0014573410610635264325
0.0014962893857277817858
0.0015305593171138810737
0.0015719829039279008265
0.0016304025774911202248
0.0017100271488060651576
0.0018062051878874173932
0.0019049597007047567102
0.0019889056174631765221
0.0020452693648588902292
0.0020771550144723935696
0.0021075111946500572034
0.0021687752639860157292
0.0023267033408182857639
0.0025673988721304796291
0.002785549265408357629
0.0029383304993084568418
0.0030263500481576247232
0.0030789178936725604581
0.0031175044808173612947
0.0031455340720471349283
0.0031635906211171026074
0.00318181866946416151
0.0032171797208593263563
0.0033039065462944485971
0.0035225645887278530903
0.0037532616399262811596
0.003903737516160174937
0.0039713432159620082676
0.0040201835202726609805
0.00412956766395417528
0.0044820397628502813697
0.0050362756095172047169
0.0054128825748181929808
0.0055878041521048140219
0.0056341551613342255589
0.0056344588875544658613
0.0056167675805934066252
0.0055960052725113800312
0.0055929221280598059862
0.0056005043521101822296
0.0056519907084120017682
0.0058681557519840955514
0.0061596639886918541987
0.0062962055329215472002
0.0063201786152272164745
0.0063043802470028852125
0.0062631830362563463074
0.0062597574050631075299
0.0062929411234737536035
0.0064413163312132589583
0.0067848008505191886169
0.0071249361385418734025
0.0074132501990934454236
0.0076113659682837640774
0.0077087266872613753599
0.0077501474525369009466
0.0078120272766038726525
0.0079834330144800316059
0.0085525724371047912031
0.0093256863386712244429
0.0098051366448529807957
0.0099894928713591488872
0.01000712061633408749
0.0099649053179584178713
0.0098995203877559004996
0.009902416811828755952
0.010005565854932365472
0.010487538072589079954
0.011182849043190386945
0.011567974525142644612
0.01169380461718966778
0.011700773846810529066
0.011691431416141243385
0.011705351525434270002
0.011797994330470244068
0.011861420108292620654
0.011854933336946269287
0.011753963217422207926
0.011493933685426111282
0.011368600812512060644
0.01135544883987178906
0.01139831594801441958
0.011598640485396117736
0.011823169079767353873
0.011939213329863801807
0.011988047403136248281
0.012003876831761670085
0.012007470964049174814
0.012005745245799941123
0.011991220252453997294
0.011939336577470149869
0.011868975500604516532
0.011822497397781663031
0.011799328910628506181
0.011794586232613448601
0.011797762270386168149
0.01181738121892595382
0.011887772366203487248
0.011989731552641463841
0.012095739001048856631
0.012222854408921122668
0.012372147236942935764
0.012529980955582128641
0.01267449018597833349
0.012786769439116782779
0.012858808425262739303
0.012895986161313977708
0.012914370855792577097
0.012934067997295255539
0.012974692128682794798
0.013082338331033206702
0.013276752345050227277
0.013471082088902016499
0.013641402536464692502
0.013781320621540818494
0.013898762574568044453
0.014008415279990733479
0.014127036607165540869
0.014261413541672507757
0.014406970399913617692
0.014550928020698008711
0.014676395059900738949
0.014771219777552142827
0.014833944569282074555
0.014874271166457385743
0.014911376508412142738
0.014966513163039272052
0.015055569714644863669
0.015186259765717424058
0.015355354603642658307
0.015549991330303648135
0.015752050175196402604
0.015941938067402624396
0.016105283089615313186
0.016234080718619998268
0.016328236522525737401
0.016396812448841859705
0.016451893045038801233
0.016506315375046560351
0.016571666792236049853
0.016657162133637146151
0.016764637541792363346
0.016892385636883444633
0.017032346164623377721
0.01717759496616425019
0.01731527730989968622
0.017439645140299768478
0.017543325058764547286
0.017628407453152760559
0.017697578367159131491
0.017759303323531976104
0.017821893642501331761
0.017891627391623664278
0.017975064510412051832
0.018075089948525937394
0.018193876412958758654
0.018329410894586152525
0.019123819853810033326
0.019109328604921409916
0.019094576740753772814
0.019079500008785135051
0.019063771714474386093
0.019047507760798720877
0.0190303862980291498
0.019012460441169234948
0.018993531901809308782
0.018974439394265917719
0.018955462347341814344
0.018937118860177310636
0.018918637157817136396
0.01890015845462672886
0.018881228393830613854
0.018862510861269322221
0.018843326392139300718
0.018824035084536196866
0.018804053006872718801
0.018784175179564918667
0.018763785150836525401
0.018743314583778238058
0.018721921971823398539
0.018700508258493082209
0.018678617243023790118
0.018657367548584505301
0.018636043558179996721
0.018615734725049751241
0.018595350830292681904
0.018575533440978158478
0.018554606072348021201
0.018533226213459663007
0.018510342679648902203
0.01848750079174094757
0.018464215986962368571
0.01844219374100482256
0.018420642885036340314
0.018400803285852675162
0.018381184925586328133
0.018362479020775038935
0.018343017536245277005
0.018323940686520091142
0.018304269116228458897
0.01828555495618711807
0.018266436361689099288
0.01824795376659342841
0.018228256813477578674
0.018208594394699004204
0.018187503004857587252
0.018166863578418145087
0.01814561126413026873
0.018125609095538727095
0.01810516046400746995
0.018085522169695132655
0.018064650633295310095
0.018044162862159648236
0.018022271274396622909
0.018000830675823510652
0.017978213767163884335
0.01795645901912730838
0.017933891668672027886
0.017912127899241871848
0.017889194218491263899
0.017866965587731035991
0.017844044847162992412
0.017822621339292389619
0.01780113901342261426
0.01778127298536846812
0.017761242289153156282
0.017742393831397404447
0.01772290999299803993
0.01770390990492531208
0.017683825883122124278
0.017664108553077140923
0.017643722554590242357
0.017624185188726583517
0.017604115942364464281
0.017584649973144232671
0.017564188244736256977
0.01754417744453434444
0.01752323690349260818
0.017502983663193062702
0.017481897025532038004
0.017461676522926707772
0.017440789402433352212
0.017421152497057227487
0.017400905990572104742
0.017381664272740904309
0.017361183883769830405
0.01734108919715350583
0.017319478101082485394
0.017298249953643797527
0.017275777705443431942
0.017254080781568238712
0.017231902320536642698
0.017211405993985039176
0.017191206025148651065
0.017172636918129459416
0.017153515084027622789
0.017134754121305054847
0.017114682420445722494
0.017094939500776566016
0.017074543958712544434
0.017055049110918183569
0.017035253450250757018
0.017016190885435652363
0.016996630680607551639
0.016977467707604308039
0.016957744044344028739
0.016938526058835959298
0.01691926193188702035
0.016900906797099567169
0.016882772010510992133
0.016865049317044803617
0.016846842568909985854
0.016828240540464754066
0.016808630241071827183
0.01678897907789570626
0.016769110920436126888
0.016750590282009817505
0.016732578900677610306
0.016716008075039655995
0.016699060903562122637
0.016682551632697436433
0.016664854655816133816
0.01664719466535880335
0.016628344223458473711
0.016609791774296864958
0.016590670795879700755
0.016572256695450326286
0.016553680004049102503
0.016535489009479452382
0.016517098538137018476
0.01649864196087012444
0.016479879797571914124
0.016460842290315136349
0.016441266106969429361
0.016421926155087765431
0.016402077978572029981
0.01638317077025196189
0.016363585204016376645
0.016344804664291980034
0.016325341178869537395
0.016306396558642015371
0.016287473824474835854
0.016268937713292394576
0.016251069381948583803
0.016233755782541187118
0.016217038216554641866
0.016200689747493616372
0.01618402135145997206
0.016167058146402291108
0.016149667463140688489
0.016131741767707884899
0.016114272833704035293
0.016096286725913334231
0.016079200294395093462
0.016061569741260304373
0.016044562304746518011
0.016026827002281116702
0.016009901780414538541
0.01599227791581952704
0.015976228382687023
0.015959465567134671626
0.015944234653756175768
0.015928207053210262367
0.015913143499440542128
0.015897023702853063654
0.015881874236674690948
0.015864765206185470897
0.015849412900584957525
0.015831810511792922258
0.015816538178029887485
0.015799568408233717609
0.015785112279919719797
0.015768925392134373192
0.015755253041427833699
0.01573935505424703396
0.015725705674406391388
0.015709695419209343537
0.015695880309116283513
0.015679834770883811779
0.015665913399465405259
0.015649446074373286192
0.015634910403431307585
0.015617522576366331399
0.015602153718157494092
0.015584079481131794809
0.015568616281086808742
0.0155507740078209937
0.015536114716925333509
0.015519032623736361484
0.015505572872625396005
0.015488918728434233896
0.015475765087653603827
0.015458914260916844369
0.015445042856912866158
0.015427113269637655196
0.015412312816730508805
0.015393629924210073742
0.015378601934122699754
0.015360780091531606173
0.015346803112399434385
0.015330316492247418256
0.015317498594450038377
0.015301535736852509353
0.015289138917810547041
0.015273234743234678779
0.015260958729621462021
0.015245231702688186864
0.015233234394753877167
0.015217758847214768458
0.015206046061489935511
0.015190328798797969947
0.015178343993914145821
0.01516177082860539066
0.0151491679621237052
0.015132217235266141528
0.015119464377548469045
0.015102568445948611614
0.015089979129335401656
0.015073332196284917189
0.015061386987135525622
0.015045978494239118164
0.015035486806660678175
0.015021601955943620146
0.015012122574686152104
0.014998400549808374449
0.014988544356211153802
0.014974181176482401212
0.014963323828566695017
0.014948186315593657569
0.014936834884956116595
0.014921250170892519371
0.01490968245807093584
0.01489417692104712948
0.014882621783658057241
0.014867119922798790327
0.014855607103445720579
0.014840440719046249507
0.014829670790642960482
0.01481499079675886385
0.014805442958717647192
0.014791253559765198469
0.014782279655744022182
0.014768366311502511071
0.01475989109288058411
0.014746429576208915785
0.014737941220344823179
0.014724678245413241537
0.014716122905870682169
0.014702849455117730434
0.014694284176738589207
0.014681389672360156684
4.2415436070468491656e-05
5.9283502591483982526e-05
6.6867329736115089329e-05
7.8682039144226844285e-05
0.00010748018654483243179
0.00014165730441817637889
0.00017267940911991214712
0.00020011939791608353268
0.00022429776052081433144
0.00025461936071480279061
0.00029851194555918043536
0.00034342674681603682901
0.0003771142519559112752
0.00041379066692596479238
0.00047234480073180505622
0.00054417526990059496977
0.00060136194399040918818
0.00063129637177700560595
0.0006473347004332719902
0.0006730131375133690478
0.00072939922231878570949
0.0008029526395784648482
0.00086421824722427071676
0.0009008929217983658623
0.00093169698403267400821
0.00098952869167580857768
0.0011054782540973829078
0.001265280169593212007
0.0014202926662655339287
0.0015275230122099793702
0.0015801977491701605684
0.0016006608954657638826
0.0016137142839153296482
0.0016365483786844794295
0.0016857869600039848256
0.0017718174240544861536
0.0018825200818769732402
0.0019981533329750246313
0.0020962327931967439203
0.0021611383920703036883
0.0021936720062578972217
0.0022131363504112196681
0.0022465318561012792391
0.0023330906748574970454
0.0025690463316488123223
0.0028456113885696209843
0.0030520037647453215034
0.00317157721086371025
0.0032233636819734711072
0.0032410580841953982693
0.0032487475775402844397
0.0032587840037821848814
0.0032798600812697620809
0.0033299357963495067499
0.0034698042304606674206
0.0037337714570659283862
0.0039809336741677423324
0.0041502548334709198075
0.0042283840446930157433
0.0042687544209692521169
0.004345723780914463423
0.0045815701058448824248
0.005099681176836018924
0.0055028299093248210505
0.0057175348652166056371
0.0057917208024286332899
0.0058029197188141628388
0.0057997568749549440956
0.0057957959009372617132
0.0057967731789314086085
0.0058093868067318026049
0.0058689499399092936657
0.006088945653439491873
0.0063723011626460150658
0.0065223428817197427743
0.0065609879922330863883
0.0065562944377224692191
0.0065288731819755354766
0.0065201988918530554354
0.0065343971864249552825
0.0066242489962509282231
0.0069468200290926929164
0.0074144408602545720105
0.0077989733607909785332
0.0080583506455770403248
0.0081853207769640740771
0.0082362139488739837673
0.0083024731562183987782
0.0084791996594497983514
0.0090193647740101339644
0.0096745151865768857363
0.010079786089979444336
0.010231872371075794587
0.010243302737593332902
0.010203045812337396131
0.010160347223273072034
0.010176808379414026967
0.010347557537201979364
0.011026519796239838203
0.011804810640202606856
0.012215380221528781071
0.012346009262703969492
0.012354543248801282476
0.012353507272750400073
0.012400915718868534346
0.012592854398634216462
0.012705115550649176762
0.012705535825759903604
0.012608078437342270031
0.012314429907966426003
0.012155702609372048481
0.01213532945198850764
0.012180338796481979952
0.012397353909717669096
0.012637482308848320411
0.012752918643651349473
0.012794123991161717932
0.012803273819905812078
0.012803690475680728697
0.012793370272144513611
0.012743994978491508113
0.012642072011768803672
0.012569409801371148397
0.012532768161460034265
0.012523614948079277165
0.01252584282098281182
0.012538235874876032735
0.012562079761745909706
0.012595679809753998479
0.012662666004954432203
0.012776151113112413013
0.012929327991054824151
0.013096622496876023437
0.013248116195418080041
0.01336146903391649543
0.013428983278306530838
0.013461904898645626893
0.013483421545260535282
0.013519182781669832408
0.013599213630236148612
0.013732327338848026796
0.013891128153676398846
0.014056829755354025707
0.014212578405033898798
0.014349680547194213626
0.014470471028635753866
0.014587061308836963072
0.014712796323866249998
0.014857591398893086818
0.015020576361187682954
0.015192420657449356991
0.015354033924805960548
0.015490199197182346474
0.015589167749809099486
0.015650154464895846967
0.015681847960577897233
0.015704831194173450581
0.015741863054170461556
0.015813571791627439173
0.015932868716638459716
0.016102128529045103139
0.016312853561021026932
0.016545071481607418612
0.016775423681472261678
0.016979721385879321255
0.017139598229581956557
0.017247742968683310583
0.017308112169096261795
0.017336939603419487116
0.017356630958172282464
0.017393214634837877303
0.017465830228284313225
0.017572866772072957137
0.017707027084038918369
0.017859701957132514266
0.018017967422691620605
0.018171244553580320064
0.018307305492394173457
0.018423956872257760825
0.018518545809632708937
0.018598017767714532245
0.018669483589391543121
0.018741804271864091064
0.018822282765435575241
0.018916973693955292657
0.019029698759569751987
0.019161293512902050074
0.019311399981902080403
0.019474440812737133649
0.020144667997487184646
0.020128399520983050047
0.020111735059136132131
0.020094612900302337433
0.020077374845681984772
0.020059757232279373795
0.020041758696681143126
0.020022942159640358395
0.020003660306371899569
0.0199839278879979515
0.019964428983463417683
0.019945181613598848142
0.019926612564302302599
0.019908198350870369431
0.019889880076491332772
0.019870976606538168913
0.019851706945260633869
0.019831671156344328477
0.019811336654378466915
0.019790401548263468479
0.019769414867487001414
0.019747957088487769206
0.019726418959858028901
0.019704424724575311106
0.019682539197575107948
0.019660387070314675612
0.019638466385810394305
0.019616403689027006596
0.019594917945167534407
0.019573275041242906014
0.019551563300739819434
0.019528607871296618098
0.019504949333840931186
0.019480309121506136222
0.019455910512960711972
0.019431639305261566575
0.019408577729021537356
0.019386299593440105282
0.0193654433903833606
0.019344921145487910946
0.019324844522281222486
0.019304133263613392629
0.019283393364034256967
0.019262293998148393576
0.019241754396441088093
0.019221253554121804641
0.019201275665107653268
0.019180856934705010908
0.01916031949246505689
0.019138905896664358541
0.019117400087912531093
0.019095714527098781033
0.019074707758906267463
0.019053836038199888775
0.019033220259992052192
0.01901199584473827961
0.018990471381520913907
0.018968155806026391896
0.018945543190171946352
0.018922277793614227653
0.018898832826990365902
0.018874864450250890269
0.018850783594789817521
0.018826528814234824022
0.018802816339075264368
0.018779729807091700977
0.018757682719950059119
0.018736303815113986015
0.018715839298955008058
0.018695801100849757104
0.018676207863319804758
0.0186563132667226933
0.018636018304654843741
0.018615064417191632545
0.018593887656808010672
0.018572628033067598019
0.018551567259597397108
0.01853050248384435425
0.018509484592709152251
0.01848828419685244473
0.018467068511191203628
0.01844554132380958264
0.018423834665365873553
0.018401730879522310708
0.018379613975368472994
0.018357530705487498657
0.018335940398728316214
0.018314655051932492158
0.018293821538446670971
0.018272809106817212293
0.018251683003099771624
0.018229944936690563317
0.018207941251169316305
0.018185510854957304822
0.018163025985431773685
0.018140691757674420187
0.018118992917298740869
0.018098112340811125381
0.018077905755850928737
0.018057770046493750588
0.018037144450835974202
0.01801596233899102617
0.017994524430519586583
0.017973399006757973667
0.017952752753948222203
0.017932563480071880141
0.017912473608224895733
0.017892481848619013612
0.017872286932281017391
0.017852142427814656628
0.017831800513139078185
0.017811802174993774522
0.01779198479383912318
0.017772901492532661161
0.01775375823976291928
0.017734701955117334465
0.017714707781530603797
0.017694182246757034216
0.017673057603048523273
0.017652363885411938987
0.017632563717028589684
0.017614048869767771899
0.017596356839829317698
0.017578842114495153715
0.01756089052663485639
0.017542212864346155149
0.017522783158113879737
0.017502957858185081569
0.017482748945201187496
0.017462866089899928279
0.017442979169921782323
0.017423798783248508476
0.01740442156827985698
0.017385649668649208466
0.017366240658098625743
0.017347074581569584678
0.0173269653124910189
0.017306721541593374919
0.017286004252352171057
0.01726536748252667855
0.01724494633921731801
0.017224651590745255342
0.017204442564692772055
0.017184288474234556826
0.017163818665004011016
0.017144019900251994404
0.017123888979917480796
0.017105213046606261573
0.017086434782769745894
0.017069018260882744265
0.017051138405977526308
0.017033660409216729026
0.017015130504914002807
0.016996980775620795096
0.016977717840888854883
0.016959696005977135252
0.016940490953129251628
0.016923071346689327887
0.016904467522294835263
0.016887552393874738499
0.01686913810319961779
0.016852163456372307865
0.016833460055229100549
0.016816636403639808467
0.016798332720799002971
0.016782140039480711313
0.016764447177655225629
0.016748491642487085135
0.016730688044281540744
0.016714695611752525273
0.0166960795034800831
0.016679994497082274718
0.016661036044953225765
0.016645145229821689536
0.016626915187632453769
0.016611957408454624402
0.016594564885634179724
0.016580459084133233882
0.01656331928526393743
0.016549231911745586332
0.016532046013734782303
0.01651767929873231705
0.016500342520441666633
0.016485835609149873671
0.016468100562042869983
0.016453111657448463157
0.016434660320011746509
0.016418827789780127135
0.016399515047700978509
0.016383284206387856152
0.016363903296204490578
0.016348411192696005179
0.016329780974483409234
0.016315646019662840421
0.016297840475284375295
0.01628435411048196127
0.016266613297564354312
0.016252514290851678702
0.016233663407324159383
0.016218505372860340941
0.016198730765426220396
0.016183414492110425459
0.016164343759353036467
0.016149935370018700387
0.016132115810720451532
0.016118743133756826408
0.01610147052025584849
0.016088474773128386142
0.016071188017171163936
0.016058150900687986201
0.016040742514925581536
0.016027804465907725257
0.016010491908555038454
0.015997938846746027203
0.015980713166990505314
0.015968071802474805704
0.015950306144266849367
0.015937400254717948994
0.015919375633258299463
0.015906454155463923411
0.015888672539119959998
0.015875933568134971419
0.015858347320533490443
0.015845998114711060123
0.015829417383327607644
0.015818337139224293575
0.015802921702685216593
0.015792746589343476665
0.015777480140747191656
0.015766856921884380566
0.015750920106900680867
0.015739438078302456225
0.015722808530692366363
0.015710836011933911049
0.015693832230394201555
0.015681758529585317075
0.015664893579574342558
0.015652871443964832404
0.01563618267448470614
0.015624294293217141916
0.015607763772444932862
0.015596468405401355331
0.015580328024264655448
0.015569909628630701146
0.015554032262757385915
0.015544148637120547979
0.015528576078897375276
0.015519108720922327252
0.015503950949064230699
0.015494527952476043475
0.015479553584483121687
0.015470085477874784621
0.015455280147523252354
0.015446000594385693103
0.015431629379912107508
4.1255340334274973524e-05
5.5078255475380634117e-05
6.5666215178173257725e-05
8.2769091986480369761e-05
0.00011725573158666562513
0.00015812801144739508925
0.00018891931621564526022
0.00020534240778078427796
0.00021728242901480979967
0.00023972966547284365463
0.0002995053306056692918
0.00038645059943872797246
0.00044286306661437936866
0.00048184772820030277469
0.00053399173468039273869
0.00059339382297804736579
0.00063641499250648592839
0.00065740615678841940635
0.00067103213085173266973
0.00069644999385768183425
0.00076040003004554618075
0.00084953019961882139752
0.00091655005791097237527
0.00095556217824983521753
0.00098800922465752997158
0.0010490077594717723847
0.0011578172261127374788
0.0013004589529213475118
0.0014415053357296600447
0.0015516576978375693201
0.0016243761999295248336
0.0016712914187380837998
0.0017052955879223114302
0.0017388965913961210684
0.0017910180655201040061
0.0018746155469101704119
0.0019844616119130313939
0.0020984282010216431802
0.0021904688053178723861
0.0022452380656848140196
0.0022706351529414347049
0.0022944019292696587846
0.0023465177192917626575
0.0025057934154354092465
0.0028692033633833146158
0.0031780786708787891331
0.0033556758938926658543
0.0034176651610731711463
0.003425503857656796592
0.0034199054088298397672
0.0034146421575655381588
0.0034170969408692719246
0.0034388517518820103588
0.0035293395230378290205
0.0037645553884606071555
0.0039992061559077519278
0.0041778545162448905287
0.0042850180194372086001
0.0043318047566423050973
0.0043656624129838885948
0.0044406621076031006431
0.004686773290174819917
0.0051942256884159954469
0.0055717580834911250437
0.0057683714581866921481
0.00583609252895629909
0.0058490044442957179333
0.0058523677974381725989
0.0058607632654224372376
0.0058905485254139560575
0.005997102355576476064
0.0062696194351361794056
0.0065224074157160666365
0.006681749287153451039
0.0067457454892807314217
0.006751828799969895531
0.006735359904963250828
0.0067154567917995736798
0.0067208172894507242634
0.006781032103286913082
0.0070391301064885438907
0.0075688978738638439114
0.0080263696296163315053
0.0083617866239951398055
0.0085575916874821161828
0.0086375679461534269482
0.0086751921990658661943
0.0087503119659555414489
0.0089904460929848724338
0.0097160399709000453555
0.01041241968903617969
0.010753710293625744904
0.0108329884314466076
0.010811842390543398296
0.010687084216047972388
0.0106094646058982299
0.010624025267640415521
0.010815246275153515138
0.011588166368883288937
0.012463066056323596903
0.012911598680097589181
0.01304373688745093067
0.013047694163445389473
0.013047737277932363112
0.013119219562873872184
0.01339637258373229875
0.013567511104297304281
0.0135767351218962877
0.013480223668705925213
0.01312885833666102911
0.012882745655371735313
0.012822963301987275186
0.012833804073502293533
0.01292412519174333807
0.013128242228368483882
0.013285206927738806709
0.013404243947161885095
0.013497633203008521652
0.013558897759042278994
0.013584639015192551126
0.013585391120852108315
0.01356735572537739673
0.013484594551674921811
0.013360926281595351603
0.013295913513618968019
0.013278675615007121819
0.013281967895521986853
0.013306207110735348426
0.013388365969285538279
0.013457016629170650071
0.013488587380376754199
0.013516183426806554699
0.01357207664859628321
0.013700871155163683868
0.013864689260917575225
0.014021317722584143717
0.014157783580266756693
0.014277875179653431656
0.014395152472853910142
0.014522267485022758229
0.014662219726850637611
0.014805377780601191098
0.01494006575044350138
0.015058783327679670788
0.015162297001443201389
0.015258886538631189281
0.015360398854308782504
0.015477384248131277958
0.015614876092613656083
0.015771963810499112224
0.015939243350589910042
0.016105469129385235894
0.01626002613754446921
0.01639595668704592682
0.016513061116046376386
0.016619598592037380241
0.016724918483713858974
0.01683828950417443418
0.016965603909900452834
0.017107287409201754613
0.017258986269308655703
0.017414062457719554217
0.017564550004957907303
0.017702579580107007107
0.017823432502138008421
0.017924072556167399556
0.018008388423132348777
0.018084218736945177619
0.018163962456081598346
0.018260207304967402547
0.018379720003019607566
0.018524997082856337755
0.018691844907905659501
0.018869852790836163375
0.019046125051139835976
0.019207334187143248333
0.019349082864401925125
0.01946405955194220605
0.019555485625793164739
0.019626016259788013618
0.019685860541489179354
0.01974207144669762326
0.019802881823864516148
0.019877068289194832484
0.01996746706171315805
0.020077048045728729947
0.020206234794036687097
0.020352674859079912528
0.020510687985021206631
0.021224121271331001376
0.021204805939123359121
0.021184598317967415215
0.021164338404899174506
0.021143932882521164485
0.021123786995001229277
0.021102985658558597731
0.02108205740948895443
0.021060801544099210653
0.021040136006423130338
0.021019484577612660564
0.020999494024815684723
0.020979606692767615445
0.020960487337257853457
0.020940991011873105743
0.020921390272873648802
0.020900591494209180138
0.020879584824669901455
0.02085768515234710449
0.020835943006946511941
0.020813344148562597236
0.02079081803577476073
0.020767566676910802909
0.020744966650133072478
0.020722158615759538047
0.020700000467790781455
0.020677042317621008999
0.020654509770669456786
0.020631299081413166652
0.020608582238686896926
0.020584398345359848637
0.020559867094624553752
0.020533743390296767262
0.020508204440105561733
0.020482187550471500637
0.020457655366575257933
0.020433214277872872172
0.020410704854800180291
0.020388196411675645753
0.020366872128538323489
0.020344386095771046369
0.020322338616598205341
0.020299111901260616375
0.020276905986536374743
0.020254062465200600024
0.020232512366842890505
0.020210239668346476755
0.020189048799686477864
0.020166699508279928299
0.020145057165970734619
0.020122060999383378777
0.020100096798896460726
0.020077264222608425664
0.020055833528216687744
0.020033345823938189523
0.020011927549163321255
0.019988977478922882042
0.019966816503089766105
0.019942846199050050932
0.019919407465598157336
0.0198939148117539856
0.019868918414612385392
0.019842227510817569275
0.019817213386050823443
0.019791885218530251567
0.019769245709323327032
0.019746303064358095014
0.019725445616121599357
0.019703778876183214441
0.019683964801475137968
0.019662806676559209385
0.01964260291836382108
0.019620139884637233241
0.019598460070032752006
0.0195751466448710644
0.019553331068816178634
0.019530071060276401468
0.019508311709416605723
0.019485035219834488662
0.019463598222997632869
0.019440582384172781782
0.019419059032397836817
0.019395326839412450198
0.019372862831194936906
0.019348339608078152924
0.019325619359714683865
0.019301321699015876188
0.019279376954488613993
0.019256159220422133793
0.01923522567084584578
0.019212493072146025891
0.019191389918099693163
0.019167983586515890959
0.019146186446579564061
0.019122203467259391713
0.019100162539803251099
0.019076445211933076157
0.019055172700566891386
0.019032474943727711175
0.019011775339295489129
0.018988846418722830911
0.01896726351292857965
0.018943714384871336576
0.018922256729512053341
0.01889960433625877817
0.018879150960562991052
0.018857259438871950413
0.018837117142719690677
0.018815425530063246973
0.018795347508739287251
0.018773433835336434533
0.018753121163577420039
0.018731161931305834178
0.018711293167904638479
0.018689977169150620573
0.018670365686737588201
0.018648423385903580701
0.018627634519869467472
0.018604618261014709696
0.018583758435996813874
0.018561998314590433257
0.01854326453085495055
0.018523518629558824444
0.018505656106652727116
0.018485490327766519042
0.018466179169370239288
0.018444422337757785529
0.018423945612355805551
0.018401682948236797177
0.018381382968110263759
0.01835979828594472979
0.018340331026648129531
0.018319703339098256101
0.018300806150970603398
0.018280348810529478687
0.018261025918475129459
0.018239461630869754222
0.018219165276802468806