/*--------------------------------*- C++ -*----------------------------------*\
  =========                 |
  \\      /  F ield         | OpenFOAM: The Open Source CFD Toolbox
   \\    /   O peration     | Website:  https://openfoam.org
    \\  /    A nd           | Version:  12
     \\/     M anipulation  |
\*---------------------------------------------------------------------------*/
FoamFile
{
    format      ascii;
    class       volScalarField;
    location    "0.0056";
    object      nut;
}
// * * * * * * * * * * * * * * * * * * * * * * * * * * * * * * * * * * * * * //

dimensions      [0 2 -1 0 0 0 0];

internalField   nonuniform List<scalar> 
75962
(
4.8382257314851850903e-07
5.8085748685330794001e-07
6.3475395734891605541e-07
7.3776934680437597574e-07
8.7069740689231161783e-07
9.5748552284206926951e-07
1.0120229870450401975e-06
1.0736113935875413471e-06
1.1579059499534076256e-06
1.2658006094205643565e-06
1.3860598975032291118e-06
1.4943677294201395394e-06
1.5859353518304933014e-06
1.6885061590362176598e-06
1.8101161393013430175e-06
1.9135789725437737014e-06
1.9673574135635881895e-06
1.9904653323970274933e-06
2.0260956206881941106e-06
2.0831821278484630396e-06
2.1561994309689091777e-06
2.2406772181321449126e-06
2.3272280832221884376e-06
2.4017403316972653407e-06
2.4610004813319850068e-06
2.5316397277990809752e-06
2.643910536529146883e-06
2.7912319721203142478e-06
2.9327213580321551393e-06
3.03520976686641415e-06
3.0969353860252527865e-06
3.1358794422924898806e-06
3.1693575285536658175e-06
3.2096836574203712913e-06
3.2664522945603478041e-06
3.3428872277118025933e-06
3.433202371137568986e-06
3.5233865787243675693e-06
3.5977539246963684762e-06
3.6459317897323481955e-06
3.6717404238215657644e-06
3.695865160109032502e-06
3.746450593493047576e-06
3.8774127633064177226e-06
4.0702206636734315363e-06
4.2368366762352205056e-06
4.3486506939644293236e-06
4.4103690933470452384e-06
4.4454675707735078754e-06
4.470147144968154958e-06
4.4870966404103665844e-06
4.4968400439005607399e-06
4.5066223977112425647e-06
4.5283856499319959161e-06
4.5856241496317925768e-06
4.7314075206337554417e-06
4.8806633992563490406e-06
4.9742963518812242379e-06
5.0138242971361094159e-06
5.0410106501019192216e-06
5.1053387487509840819e-06
5.3143444847767216883e-06
5.6296778750928102114e-06
5.8327739345653461855e-06
5.9224836550351172927e-06
5.943012161408249619e-06
5.9390750756862694052e-06
5.9256766892519146991e-06
5.910573126878815241e-06
5.9048096652617649459e-06
5.904667093903365233e-06
5.9274782750278314568e-06
6.0351961174787494146e-06
6.1792006365070545031e-06
6.2432274631111019136e-06
6.2508709216802297348e-06
6.2387764098603548313e-06
6.214012759936372415e-06
6.20794180542250874e-06
6.2199381527609954258e-06
6.2881271367148027993e-06
6.448969597968916902e-06
6.6041668734655994215e-06
6.7319392656309873493e-06
6.8167631607550789287e-06
6.8556202451111075515e-06
6.8692729801111148983e-06
6.8917588059156953292e-06
6.9617873715615455983e-06
7.1999081838164432213e-06
7.5133998801051052682e-06
7.6992525537596643198e-06
7.7662463982308506042e-06
7.7678170270291366814e-06
7.746120450939119516e-06
7.715214898541331018e-06
7.7109187075695978254e-06
7.7453287962559937304e-06
7.9234942628687095485e-06
8.1765824668529218553e-06
8.310815969890603393e-06
8.3503369411269274392e-06
8.3470898415258676806e-06
8.3379559799478791257e-06
8.3370621897785699578e-06
8.3640777384928906133e-06
8.3808284399923175341e-06
8.3727815959263558401e-06
8.3314803782011952638e-06
8.2331032965869066839e-06
8.1821959410534915918e-06
8.1717077960937656485e-06
8.1813287443507351694e-06
8.2469520174852853893e-06
8.3207472074588416106e-06
8.3557769705610540861e-06
8.3670787741989860226e-06
8.3668024333347270082e-06
8.3622555015896177385e-06
8.355868951151648158e-06
8.3450595440384711145e-06
8.3212674342482497749e-06
8.2909251855867946581e-06
8.2688863010136879516e-06
8.2550058300232467411e-06
8.247596968532348814e-06
8.2429723167146658945e-06
8.2440630625767883841e-06
8.2627559955255056371e-06
8.2923498088074507214e-06
8.3231271788147255205e-06
8.3609124078357873925e-06
8.4059666411622390776e-06
8.4535559609459885879e-06
8.4962978214007582958e-06
8.5279687308346020932e-06
8.5460613833095791107e-06
8.5524917546748059611e-06
8.5526517820683048193e-06
8.5532163986499039143e-06
8.5606498125440370819e-06
8.589986199238921249e-06
8.6475256885562573487e-06
8.704544801224729317e-06
8.7533523628060447118e-06
8.7920584792469777709e-06
8.8233354075387028791e-06
8.8519233818079075547e-06
8.8831338229579804959e-06
8.9190671178617432789e-06
8.958239208338288843e-06
8.9966521771495871156e-06
9.0291206270870149003e-06
9.0519962047806671744e-06
9.0649297836913825531e-06
9.0709520338922501229e-06
9.075938587805509807e-06
9.0863524202899492602e-06
9.1069678759781068968e-06
9.1400074532947077327e-06
9.1843323685773816897e-06
9.2359216800920384215e-06
9.2892854303487988772e-06
9.3386431200375722361e-06
9.3798807754089644537e-06
9.4108098744870242444e-06
9.431538804083182848e-06
9.4447813514222632718e-06
9.4540706553818422398e-06
9.4631143651590960715e-06
9.4752269375824581005e-06
9.4930129303629626138e-06
9.5169452092354322597e-06
9.546478240295421208e-06
9.5792766089654716354e-06
9.6133606171080618287e-06
9.6451321077257275491e-06
9.673022754488176138e-06
9.695033314770004477e-06
9.7117916339449511808e-06
9.7240792347974853841e-06
9.7342527560855506008e-06
9.7446071344051728017e-06
9.7568569216941270162e-06
9.7727712495399174863e-06
9.7930969709124240078e-06
9.8183746786236251824e-06
9.8480078340381510277e-06
9.7905218698818791752e-06
9.7800155882484108004e-06
9.7694525106664049848e-06
9.7588180974431680185e-06
9.7480294064070906396e-06
9.7371149757811677959e-06
9.7259899128505171835e-06
9.7146649925939704073e-06
9.7030878598511372554e-06
9.6914732751293080715e-06
9.6798948931834210272e-06
9.6684876834964402414e-06
9.657055986630263289e-06
9.6456355638555455931e-06
9.6341092521097508079e-06
9.6226457967936407481e-06
9.6110719173132131571e-06
9.5994798968659159337e-06
9.5877215095951623093e-06
9.576000306089754507e-06
9.564159551693976813e-06
9.5523088568392173174e-06
9.5402324702552635335e-06
9.5281584415528253819e-06
9.5159694509178999194e-06
9.5039504640086844848e-06
9.4919202382542687622e-06
9.4801582042578477272e-06
9.4683888035098291204e-06
9.4567766963126212128e-06
9.4448946706150292712e-06
9.4329075303412381612e-06
9.4205437073248677303e-06
9.4081930365707525273e-06
9.3957314998994063824e-06
9.3835954921805920723e-06
9.3715878255066616202e-06
9.3600275011234337495e-06
9.348537128565655746e-06
9.3372918569704986373e-06
9.3258654069374427229e-06
9.3145455499337474005e-06
9.3030825354557399216e-06
9.2918716091222350686e-06
9.2805678809793548255e-06
9.2694361673569068e-06
9.258005534276857041e-06
9.2465913121721776024e-06
9.2348198818314700825e-06
9.2231680580716463003e-06
9.211366671191338314e-06
9.1998910879369312678e-06
9.1883131050971531705e-06
9.1769528388871371985e-06
9.1652913462846520874e-06
9.1537375517784762963e-06
9.1418366156492463312e-06
9.1300580046501424316e-06
9.1179887347034902867e-06
9.1061458769808496669e-06
9.0941050033616368343e-06
9.0822757495224070085e-06
9.0701571631359307186e-06
9.058224062045198719e-06
9.0461224125807343348e-06
9.0344078222298085672e-06
9.0226869519172280703e-06
9.0113850114014976096e-06
9.0000513205833406231e-06
8.9890273147613636268e-06
8.9778526733479533013e-06
8.9668105360126160863e-06
8.9555032917194505503e-06
8.9442975015782746884e-06
8.9329305038252098417e-06
8.9217864928514175997e-06
8.9105163673394927526e-06
8.8994078665985653894e-06
8.888056305304376073e-06
8.8768274164644991067e-06
8.8653712413130668016e-06
8.8540962093273229382e-06
8.8426170477380726945e-06
8.8313635909893938898e-06
8.8199486784351163889e-06
8.8088583513723987372e-06
8.7976237416664750546e-06
8.7866541027504777879e-06
8.7753827669339879027e-06
8.7642196730957667994e-06
8.7526827614146036812e-06
8.7412498545764508715e-06
8.7295076443922179819e-06
8.7179647894717137812e-06
8.7063040603318030125e-06
8.6950739260290833518e-06
8.6839272115381019394e-06
8.6732034984835804385e-06
8.6623523600165284103e-06
8.6516036813012917424e-06
8.6405335734930962383e-06
8.6295539917068329037e-06
8.6184162587299042139e-06
8.6075125349711962321e-06
8.5965407448192614643e-06
8.5857627251682480793e-06
8.5748684710463118767e-06
8.5640832332373508504e-06
8.5531644555599176111e-06
8.542380020461796955e-06
8.5315906844109654165e-06
8.5210381056643760914e-06
8.510550272762192769e-06
8.5001765084983961615e-06
8.4896911094549998885e-06
8.4791153664664999003e-06
8.4682928040358130119e-06
8.4574653266975169418e-06
8.4465873523677347109e-06
8.4360536054997220691e-06
8.4256547688714341629e-06
8.4156278427418546815e-06
8.4055170193325741879e-06
8.3955277586180473547e-06
8.3852503998033685697e-06
8.3749919199694998094e-06
8.3644422130469862301e-06
8.3539742948929303872e-06
8.3433699016051902214e-06
8.3329498876827209393e-06
8.3224964212562774202e-06
8.3121474180949221768e-06
8.3017563202510671536e-06
8.2913566809791221425e-06
8.2808884295940801598e-06
8.2703590544528911115e-06
8.2597019431590209518e-06
8.2491122380267561422e-06
8.2384026358060061674e-06
8.2279375723854592342e-06
8.2173100372817900364e-06
8.2068917980082435772e-06
8.1963087815697230121e-06
8.1858616382022500994e-06
8.1754262443011774063e-06
8.1650942039302524649e-06
8.1549371907732073184e-06
8.1449277131071697706e-06
8.135076608004942545e-06
8.1253276439306930742e-06
8.1155079962712667996e-06
8.1056236807519842891e-06
8.0956414150632335848e-06
8.0855331621826683093e-06
8.0755474249316939892e-06
8.0654391264712914052e-06
8.055562835506918274e-06
8.0455564903013277627e-06
8.0357121173242389235e-06
8.0256914342165720669e-06
8.0158802202955793664e-06
8.0059010867938873446e-06
7.9963242408588641378e-06
7.9865777791965123601e-06
7.9772237937229704209e-06
7.9676798827168317441e-06
7.9583857172124787142e-06
7.9488351083533151321e-06
7.9395345046773754013e-06
7.929749672654051154e-06
7.920409696584750073e-06
7.9105128162730146176e-06
7.9012037382509754961e-06
7.8914773398434260915e-06
7.8823861569021412104e-06
7.8728708051974648896e-06
7.8639915531761843013e-06
7.8545651289531092835e-06
7.8457077281678050471e-06
7.8362692078745890925e-06
7.8273858022378025597e-06
7.8179541477444684257e-06
7.809060103275789822e-06
7.7995395824951121896e-06
7.7905084785017711358e-06
7.7807743795173681741e-06
7.7715502067345252176e-06
7.7616582403714881908e-06
7.7524219799575325146e-06
7.7425985222390959393e-06
7.7335731341756205399e-06
7.7239508057070050903e-06
7.7152375146187497065e-06
7.7057375479353180416e-06
7.6971170435726498119e-06
7.6875859256759259064e-06
7.6788037783233438271e-06
7.6690199181641137047e-06
7.660020049088013205e-06
7.6500609130532197316e-06
7.6410149252392165235e-06
7.6312807723563503816e-06
7.6225080256589341045e-06
7.6131193577996590543e-06
7.6046494383122654508e-06
7.5954063905700199713e-06
7.5870558470906267957e-06
7.5778421343359208303e-06
7.5695355752283949099e-06
7.5603805162764229679e-06
7.5521580177941009549e-06
7.5430814791280663878e-06
7.5349461873305380861e-06
7.5258271476898908842e-06
7.5176411058847819838e-06
7.5083258955282031671e-06
7.499999655478390971e-06
7.4906020477900676793e-06
7.4822475094800224498e-06
7.4728718303596922701e-06
7.4645658789202138021e-06
7.4552613762955713837e-06
7.4471256689170399728e-06
7.4381412551850413669e-06
7.4303804112527057445e-06
7.4217901169474647622e-06
7.4142971436263137479e-06
7.4057649957161185691e-06
7.3981950298135592904e-06
7.3895200525221810294e-06
7.3817163795277398553e-06
7.3728629839748979047e-06
7.3649492927841738604e-06
7.3559980127284063542e-06
7.3480430299504276274e-06
7.339124265684038393e-06
7.3311852464217362789e-06
7.322280359981870194e-06
7.3143635477676784742e-06
7.3055528498108938024e-06
7.2978299500495898009e-06
7.2891501863994505263e-06
7.2817391149507719277e-06
7.2731928782171791268e-06
7.2659356601116630215e-06
7.2574711200472786553e-06
7.2503496544957164816e-06
7.242010584366905592e-06
7.2348989122726059509e-06
7.2266218253393047267e-06
7.2195059774035409524e-06
7.2112389639339856195e-06
7.2041324448163040093e-06
7.1959712327158546988e-06
5.5331732712021380022e-07
6.5400687734736330644e-07
6.9413381929756438721e-07
7.5229968034457288098e-07
8.7845660366204397416e-07
1.0078548347061851069e-06
1.1120665261361213999e-06
1.1964107970992857976e-06
1.2657471360036635254e-06
1.3475822386366231532e-06
1.4580662396726416697e-06
1.562923192175365632e-06
1.6366918322538292533e-06
1.713135534563176853e-06
1.8289602820263834925e-06
1.9617851632278815845e-06
2.0610152763680338881e-06
2.110351709146923582e-06
2.1355090727546174287e-06
2.1758371697558071097e-06
2.2634333312898014163e-06
2.3731926314470445597e-06
2.4604631633858970767e-06
2.5104487386970442821e-06
2.5511781303016181601e-06
2.6271513630399772924e-06
2.7746929124668519509e-06
2.9664192530845058829e-06
3.1408912639458537783e-06
3.2552557105150816315e-06
3.3087337558282956502e-06
3.3278087656099078324e-06
3.3390101322022444043e-06
3.3601586759714084575e-06
3.4078464892037044175e-06
3.4912025359841452527e-06
3.5960791074713262833e-06
3.702339285438118261e-06
3.7895709247537895309e-06
3.8452254544933783239e-06
3.8714459323285099445e-06
3.8858876262998277872e-06
3.9123060873147967885e-06
3.9839348338969372983e-06
4.177250972646362622e-06
4.3934918249886724617e-06
4.5471159539217097074e-06
4.6323153264258242184e-06
4.6668486430370037966e-06
4.6764368392931590957e-06
4.6787393886025351229e-06
4.6826900702332083411e-06
4.6945019099148419043e-06
4.7268011219381588073e-06
4.8213568802487062175e-06
4.997870794335800045e-06
5.1572095266430517197e-06
5.2623052846517186923e-06
5.3080699829774461679e-06
5.329638117540772796e-06
5.373589095900675157e-06
5.5130505513438476025e-06
5.8123024241466558453e-06
6.0339107834051483443e-06
6.1465627897559542032e-06
6.1821959622715657906e-06
6.1839304354510922295e-06
6.1779672829632980446e-06
6.1715559516961868665e-06
6.1677727431585158271e-06
6.1701423802405095105e-06
6.1972323527206278664e-06
6.3075847763492107323e-06
6.4483915894811264075e-06
6.5195775629556098008e-06
6.5344567731207187878e-06
6.5276192549456027496e-06
6.5094432068184863657e-06
6.5005457014214288895e-06
6.503037274353287001e-06
6.5428073182132845173e-06
6.6950604745235494205e-06
6.9120427212270602277e-06
7.0843188061142485591e-06
7.1964182504528612552e-06
7.2480556357481683286e-06
7.2655509116015626559e-06
7.2895487784025303428e-06
7.361275624028834509e-06
7.5862593877045313642e-06
7.8518094013320433218e-06
8.0094305567980399391e-06
8.0643232411516857559e-06
8.0633230621559340664e-06
8.0419469981254875602e-06
8.0194458353050336835e-06
8.0202726843994858439e-06
8.0812463312590331077e-06
8.3356171314414344639e-06
8.6192915212574173914e-06
8.7622789122314217889e-06
8.8031619859135270547e-06
8.8001587540204873197e-06
8.7936547912677430781e-06
8.8042519321607213726e-06
8.8658433791067344231e-06
8.899305885463126839e-06
8.8933550594698991299e-06
8.8532600981567590099e-06
8.7435590054058353704e-06
8.6807365415884905934e-06
8.6673370815467302801e-06
8.6772529055226028819e-06
8.7478850755414817918e-06
8.8262178566319482627e-06
8.8603954614066040408e-06
8.868585826512038331e-06
8.8656130769783347834e-06
8.8596120345461711667e-06
8.8499350799433376794e-06
8.8268133569527609594e-06
8.7853477829392031395e-06
8.7539248810800396338e-06
8.7350241521201589908e-06
8.7257307946117270401e-06
8.7204317245056217747e-06
8.7186711256161879106e-06
8.7209022140813198179e-06
8.7264764493299445546e-06
8.7435247443688601793e-06
8.7764589682190909776e-06
8.8227469743720793083e-06
8.8734845538374343876e-06
8.9185080958074863198e-06
8.9504245451251807639e-06
8.9668289140439753259e-06
8.9716001027577247046e-06
8.9725221605562329689e-06
8.9781405311594965406e-06
8.9983537198286934556e-06
9.0359660120809699171e-06
9.0817286663614156436e-06
9.1293854149261246747e-06
9.1734595559116220248e-06
9.2112198889444046141e-06
9.2435016708044085711e-06
9.2742225733592263643e-06
9.3076229820945502431e-06
9.3467919208388450405e-06
9.3913775190076934589e-06
9.4383956067360043649e-06
9.4819077368724218215e-06
9.5172933519891918014e-06
9.541068575087005579e-06
9.5531149416379605998e-06
9.5561623796132578779e-06
9.5565151524858053865e-06
9.5611003399619459801e-06
9.5761474524255352366e-06
9.6054669980981886022e-06
9.6495937261176175276e-06
9.7057482089200891725e-06
9.767787013708610931e-06
9.8287336487730832631e-06
9.8815726066744045806e-06
9.9211428882872029441e-06
9.9455374178472917145e-06
9.9560549420636152297e-06
9.9574479878601461361e-06
9.9561786949578677048e-06
9.9597123107000148023e-06
9.9735055786281443901e-06
9.9970310913924858236e-06
1.0028120155179303448e-05
1.0064252732507036878e-05
1.010173508372502006e-05
1.013759501270856958e-05
1.0168451223398443362e-05
1.0193749282880612892e-05
1.0212810524271382081e-05
1.0227600778839632619e-05
1.0240111156610288753e-05
1.0252788754868242632e-05
1.0267627375083368847e-05
1.0286254384497469866e-05
1.0309667934640791105e-05
1.033804143709867788e-05
1.0371222514785884841e-05
1.0407660600946957969e-05
1.0316910037688277105e-05
1.0305586240404244054e-05
1.0294169196280753424e-05
1.0282643455808835367e-05
1.0271098337766666473e-05
1.0259468098224940491e-05
1.0247752415658907169e-05
1.0235837395695812708e-05
1.0223809921247200788e-05
1.0211671467751357969e-05
1.0199597083923673591e-05
1.0187593763871006537e-05
1.017577364549104369e-05
1.016400513238691109e-05
1.0152273424812683568e-05
1.0140403489660700722e-05
1.0128449663346795334e-05
1.011630895993163123e-05
1.0104100698975539016e-05
1.0091748564522539562e-05
1.0079393447764814059e-05
1.0066929143548502607e-05
1.0054455245287861824e-05
1.0041875209405309193e-05
1.0029331731713267666e-05
1.0016728148810971573e-05
1.0004191072687382147e-05
9.9916260595752716975e-06
9.9792181444784218474e-06
9.9667825798913035808e-06
9.9543430860765501214e-06
9.9415996793216235229e-06
9.9286869542177029436e-06
9.9155299846889110644e-06
9.9024370335501701602e-06
9.8893789888223971381e-06
9.8766342852892627884e-06
9.8640989537843678007e-06
9.8519390409055449431e-06
9.8398791513725749404e-06
9.8279465461001561729e-06
9.8158637335269383029e-06
9.8037817872459421062e-06
9.7916151904254449846e-06
9.7795981371681443524e-06
9.7675998374726524565e-06
9.7557448100396565579e-06
9.7437886425268391196e-06
9.7318122718108619756e-06
9.7196217528403559984e-06
9.7074147024246173842e-06
9.6951688723195835173e-06
9.683103528747813809e-06
9.6710825616101595351e-06
9.6591379407499328684e-06
9.647050529127922241e-06
9.6348980171587540619e-06
9.622555088066913614e-06
9.6101462749525059604e-06
9.5975808173717030416e-06
9.5849780435445784449e-06
9.5722500458656886095e-06
9.559500068169435758e-06
9.5467120563645427707e-06
9.5340678943359956468e-06
9.5215899995909302725e-06
9.5093846974309405393e-06
9.4973589510381340297e-06
9.4855757127953277901e-06
9.473911598256103776e-06
9.4623712894183188254e-06
9.4507655603027386905e-06
9.4390687654598271449e-06
9.42721474043937529e-06
9.4153130617908078868e-06
9.4033986811901676005e-06
9.3915427855847181509e-06
9.3796943602186954735e-06
9.367866650539237756e-06
9.3560019035125477848e-06
9.3441424433461712953e-06
9.3322131907159876088e-06
9.3202471506135536888e-06
9.3081886013119780429e-06
9.2961340047294799423e-06
9.2840949816585851406e-06
9.2721881652541811221e-06
9.2603671605781785281e-06
9.2486705243703315666e-06
9.2369398140299022014e-06
9.2251917774703679013e-06
9.2132998686730526957e-06
9.2013499901510240351e-06
9.1892995384366396236e-06
9.177240573944514258e-06
9.1652243905199466212e-06
9.1533744842921718185e-06
9.1417394638829528331e-06
9.1302852588833826821e-06
9.1188608431460441476e-06
9.1073239674121749584e-06
9.0956561627735249017e-06
9.0839316098114238551e-06
9.0722930862374903118e-06
9.0607830902257156401e-06
9.0493971708996275786e-06
9.038045912756563274e-06
9.0267291855608702773e-06
9.0153701642006518221e-06
9.0040318755402717123e-06
8.9926508937231678818e-06
8.9813638398799392301e-06
8.9701307233487840833e-06
8.9590928350758575871e-06
8.9480511767198880695e-06
8.9370427103308123942e-06
8.9258075588723565267e-06
8.9144453295406434927e-06
8.9029365865974100842e-06
8.8915398706777969438e-06
8.8803730672273482535e-06
8.869537583524653073e-06
8.8589198333303558223e-06
8.8483589909699877788e-06
8.8377007270837121494e-06
8.8268712762126286925e-06
8.815862136835445989e-06
8.8047614193622961967e-06
8.7935707378038029401e-06
8.7824682676588624209e-06
8.7713713832377727898e-06
8.7604600593620890941e-06
8.7495077841212206947e-06
8.7387166034124348022e-06
8.7277741642685572856e-06
8.7169015641316243521e-06
8.7058007479527917859e-06
8.6946742247411043216e-06
8.6834369508533799172e-06
8.6722278209535772712e-06
8.6610810560135523836e-06
8.64997423380541589e-06
8.6388968395674803775e-06
8.6278410023313339635e-06
8.6167125734289415009e-06
8.60575941475519784e-06
8.594729311314074923e-06
8.584071581535533869e-06
8.5733963031433448455e-06
8.5630715528201323977e-06
8.5526403553085199224e-06
8.5423198674944644869e-06
8.5317454204133224302e-06
8.5212760721304020659e-06
8.5105365275045242969e-06
8.5001167623600649937e-06
8.4894078296090589426e-06
8.4791530251804123227e-06
8.4686078144498561066e-06
8.4584919763320869974e-06
8.4480075362652700365e-06
8.437891228263044469e-06
8.4273502158345505597e-06
8.4172886191391245014e-06
8.4068659376569260672e-06
8.3969809678337518091e-06
8.3867300526418992043e-06
8.3769223091836576373e-06
8.3666598619054552015e-06
8.3568573586922343814e-06
8.3464043757672218255e-06
8.3365897992157256258e-06
8.3260627101943146934e-06
8.3163083358182877811e-06
8.3059770214664035976e-06
8.2964713792444500445e-06
8.2863666038251219622e-06
8.277091772355725177e-06
8.2670686130416354563e-06
8.2578156897765441386e-06
8.2477979678738516791e-06
8.2384913381624063966e-06
8.2284520949382509232e-06
8.2191269031882705176e-06
8.2090054508653421576e-06
8.1995768790157691139e-06
8.1892935394019231204e-06
8.1796699024354029836e-06
8.1691855287061718784e-06
8.1594742738282768143e-06
8.1489836066273560786e-06
8.1394670792752453329e-06
8.1291757484712719124e-06
8.1200114252325457126e-06
8.1099424661590953904e-06
8.1009575385083247443e-06
8.0909238358044281096e-06
8.0818046110632548958e-06
8.071511494594557954e-06
8.0621430895124644522e-06
8.0516330026522951881e-06
8.0422364851591379589e-06
8.0319135068199200517e-06
8.0227556292124726643e-06
8.0127582112100767645e-06
8.0038733442267316718e-06
7.994028205803273282e-06
7.9852524918484628933e-06
7.9754191741294996952e-06
7.9666474056200645409e-06
7.9567985576753515967e-06
7.9480662547478792273e-06
7.9382574526649734935e-06
7.9296374200713863129e-06
7.919868255263034132e-06
7.9112437703998782364e-06
7.9013574959206713834e-06
7.8926816501109850076e-06
7.8827439424080719747e-06
7.8740743361970077911e-06
7.8642064396338874638e-06
7.8555913268455149521e-06
7.8457825915316414703e-06
7.8372756315422414009e-06
7.8277299829011203977e-06
7.8195529490601604699e-06
7.8103136096262691863e-06
7.802378700606419116e-06
7.793195152163468438e-06
7.7851665055525784182e-06
7.7758335815344251682e-06
7.7676068680649088737e-06
7.7581162924407151717e-06
7.7497808874379335272e-06
7.7402107741183249291e-06
7.7318626957748948832e-06
7.7223401278671772237e-06
7.714017793426016729e-06
7.7045520747479058455e-06
7.6962754506527625509e-06
7.6868615703434000502e-06
7.6787433885592417613e-06
7.6694386002493953474e-06
7.6615490700492708015e-06
7.6523232375547751321e-06
7.6445789694496668013e-06
7.6354429155201617861e-06
7.6278147914569141599e-06
7.6187952117108659442e-06
7.6111909852237385479e-06
7.6022297605500422225e-06
7.5946267105264527903e-06
7.5857201510205583359e-06
7.5781763130766053156e-06
7.5693907812656644924e-06
5.599666436329456373e-07
6.4679678671622457323e-07
7.0566360331622140818e-07
7.9150013528670447981e-07
9.4137171375523224265e-07
1.0925572877294720694e-06
1.1935263698837773737e-06
1.2435594418544902088e-06
1.2782740000857561851e-06
1.3416251772934128e-06
1.4981954184571642327e-06
1.7008068601228815969e-06
1.8196762007756170377e-06
1.8967905515471344935e-06
1.9953328217673751399e-06
2.1019629644398869356e-06
2.1754344774437368241e-06
2.2095782708044857821e-06
2.230798027352822714e-06
2.2709678612769024115e-06
2.371064176653845602e-06
2.5045022208256071624e-06
2.5997545112296983164e-06
2.6527337216786659413e-06
2.695457157579593922e-06
2.7753187659608404189e-06
2.9135444595868817633e-06
3.0856750207920329482e-06
3.2465700125470914114e-06
3.3661179217656436137e-06
3.441789318038406828e-06
3.4887696159252432628e-06
3.521656723417885314e-06
3.5536845176097108484e-06
3.6039628234780811279e-06
3.6844578697897049085e-06
3.7881961721180421783e-06
3.8927941458654792737e-06
3.9745946222235771007e-06
4.0212914415844312578e-06
4.0412098054661521365e-06
4.0594465121230372502e-06
4.1023004615882757823e-06
4.235761798011394158e-06
4.5292088350265474408e-06
4.7638511489368612814e-06
4.8920933536176912138e-06
4.9338449052968620052e-06
4.9361269811426458445e-06
4.9286939596343020309e-06
4.9214783226542611083e-06
4.9198160938006059399e-06
4.9319288793064179757e-06
4.9926264368608252195e-06
5.1525008061297213687e-06
5.3071348335700023702e-06
5.4207872381037000431e-06
5.486218954672312945e-06
5.5123391634602290128e-06
5.5299637068988559559e-06
5.5732290857210103332e-06
5.7209683514453521516e-06
6.0185735514782430047e-06
6.2295248088680177885e-06
6.3343968508257885981e-06
6.3672110724268208895e-06
6.3698738991785122643e-06
6.3672824804863019241e-06
6.3674048632262304027e-06
6.3790536354609096893e-06
6.4317636447714138953e-06
6.5715138062923745933e-06
6.6982131322598081682e-06
6.7750230763020263214e-06
6.8028171002354108842e-06
6.8012144638427747493e-06
6.7882344928577790892e-06
6.7734422081153633776e-06
6.7713936250921785074e-06
6.7967553515032064045e-06
6.9195028941104117016e-06
7.1701587583462425893e-06
7.378770783463611604e-06
7.5263995529688639384e-06
7.6089660458874701748e-06
7.6392720224831630612e-06
7.6505562096350679651e-06
7.6781325076668720974e-06
7.7768740958027557559e-06
8.0783894597548253715e-06
8.357655232753215431e-06
8.4881169757712653735e-06
8.51367854102597203e-06
8.4995559010005225368e-06
8.4446260093816588734e-06
8.4078890296368200311e-06
8.4076976280002467626e-06
8.4766491258338951296e-06
8.7673711795298994368e-06
9.0865979193567035001e-06
9.2427901350054626696e-06
9.2838252578355492825e-06
9.278845992627336286e-06
9.2723716405119289052e-06
9.291072413122354392e-06
9.3820156043391905124e-06
9.4355002137140406716e-06
9.4322788619864356884e-06
9.3923958270078022979e-06
9.2629507466244139792e-06
9.1690365043808980876e-06
9.1412235371022885182e-06
9.1386834311761582791e-06
9.1642338540880622597e-06
9.2298732687388841434e-06
9.2785001023918593863e-06
9.3135370382010684219e-06
9.3394725608174847259e-06
9.3541962627841876996e-06
9.356624347818169276e-06
9.3504192551584954792e-06
9.33777345342242373e-06
9.3028870987311477282e-06
9.253633466850158358e-06
9.2245926658838023533e-06
9.2121632243666306676e-06
9.206899368695890221e-06
9.2088659534597403574e-06
9.2307911163655016572e-06
9.2480600616135723351e-06
9.2524951676668951638e-06
9.2555041265597673146e-06
9.2681283878781334505e-06
9.3054520514424111488e-06
9.3544195343889343286e-06
9.400592444700738026e-06
9.4396826374338663993e-06
9.4730553770092210163e-06
9.5052720712135754225e-06
9.5405102942876454387e-06
9.5797096139527485715e-06
9.6196793056020873084e-06
9.6566340512040866245e-06
9.6882061390482658228e-06
9.7147094296874863856e-06
9.7388401792582129061e-06
9.7643848681227856967e-06
9.7946672490272453418e-06
9.8312185121231681392e-06
9.8736708687618678104e-06
9.9190055846473476365e-06
9.9636895510168355187e-06
1.0004459993845481739e-05
1.0039241069544656753e-05
1.006804982908760207e-05
1.0093466179561687277e-05
1.0118359344595882049e-05
1.014553097844581973e-05
1.017672660954335361e-05
1.0212024248882751152e-05
1.0250072918251247478e-05
1.0288870567605736483e-05
1.0326062700882847109e-05
1.0359368808846960747e-05
1.0387466620473607997e-05
1.0409534913559894648e-05
1.0426757557464226512e-05
1.044143564068336691e-05
1.0457154404974976214e-05
1.0477517449764084002e-05
1.0504417282718344473e-05
1.0538493693238616672e-05
1.0578470174981336835e-05
1.0621333646128810558e-05
1.0663431572334924465e-05
1.0701059571375774211e-05
1.0733057215765005543e-05
1.0757467211503149096e-05
1.0775247948030770644e-05
1.0787183082614774891e-05
1.0796116579117224238e-05
1.08040043803997585e-05
1.0813102961233012742e-05
1.0825796941658409286e-05
1.0842829200340930567e-05
1.0864963920532173583e-05
1.0892265972554060033e-05
1.0924049577895792072e-05
1.0958743387124241677e-05
1.0865105478198459953e-05
1.0852628086740629193e-05
1.083992995337482721e-05
1.0827224858319360679e-05
1.0814490578796846125e-05
1.0801833595622242754e-05
1.0789021322974999729e-05
1.0776187848992539037e-05
1.0763279470749217791e-05
1.0750528408693434061e-05
1.073778631888492036e-05
1.0725219768113598932e-05
1.0712689189039284969e-05
1.0700367179385655503e-05
1.0687962697578833187e-05
1.0675544636245816828e-05
1.0662832011986122507e-05
1.0650075743487416317e-05
1.06371003646449955e-05
1.0624174027286484943e-05
1.0611038892370180264e-05
1.0597932584332188781e-05
1.0584651915167833457e-05
1.0571547581390967582e-05
1.0558400316899728855e-05
1.0545428116023067037e-05
1.0532260892515551639e-05
1.051921106362729483e-05
1.0505999047876107683e-05
1.0492925599520947446e-05
1.0479492534739045159e-05
1.0465983669431393232e-05
1.0452078781091456958e-05
1.0438328400764932769e-05
1.0424459821494312057e-05
1.041097306430841195e-05
1.0397516719994829353e-05
1.0384563424915998318e-05
1.037162524029499618e-05
1.0359003914410420345e-05
1.0346100983681779994e-05
1.0333320019012844947e-05
1.0320246422050921014e-05
1.030743808569692491e-05
1.0294474297691921425e-05
1.0281848072923593996e-05
1.0269049320363746053e-05
1.0256537734408949892e-05
1.0243743956180102563e-05
1.0231140403111609608e-05
1.0218201856859170733e-05
1.0205532971163677487e-05
1.0192651385914894673e-05
1.0180134640597874427e-05
1.0167360001163400609e-05
1.0154868221435395885e-05
1.0141999788826750026e-05
1.0129343554115307407e-05