/*--------------------------------*- C++ -*----------------------------------*\
  =========                 |
  \\      /  F ield         | OpenFOAM: The Open Source CFD Toolbox
   \\    /   O peration     | Website:  https://openfoam.org
    \\  /    A nd           | Version:  12
     \\/     M anipulation  |
\*---------------------------------------------------------------------------*/
FoamFile
{
    format      ascii;
    class       volScalarField;
    location    "0.0056";
    object      p;
}
// * * * * * * * * * * * * * * * * * * * * * * * * * * * * * * * * * * * * * //

dimensions      [1 -1 -2 0 0 0 0];

internalField   nonuniform List<scalar> 
75962
(
98584.279852213221602
98860.394839751388645
98851.362126779495156
98865.541512973941281
98998.567375481987256
99051.09006544771546
99111.80719365341065
99131.659832447054214
99047.448963519214885
98928.82297088917403
98876.590503958504996
98901.807040578962187
98955.128978340129834
99026.979713981621899
99115.349925775299198
99166.925085953000234
99126.811774305955623
99041.509866962063825
99017.718750744097633
99068.071909397709533
99105.093295134065556
99090.564040955563542
99049.615400263428455
99010.254193918503006
98984.358767933954368
98973.505856374453288
98972.412890041727223
98963.581944278252195
98942.007284616003744
98921.818067784290179
98898.706302617298206
98853.477417256930494
98809.805396415162249
98809.840173079195665
98841.456487986783031
98855.697440282412572
98834.255816515069455
98801.608209905010881
98788.036789257617784
98789.537463930173544
98786.991077259546728
98767.60966222146817
98732.825337307585869
98697.919728972483426
98676.188527543781674
98672.699014817844727
98687.211359967375756
98711.723986970944679
98724.021307730567059
98718.821304359633359
98713.340667074517114
98722.063727119835676
98739.385830603641807
98759.608347250614315
98784.453548948527896
98807.171398768186918
98816.940338112806785
98817.525751300461707
98817.851861292438116
98822.854795876817661
98840.91502758464776
98881.628324104705825
98925.897658811372821
98941.957147776120109
98927.847539781258092
98912.296836756548146
98903.677141932450468
98889.476764462509891
98868.763277753139846
98867.947769114893163
98896.443255841557402
98935.525270098194596
98963.202995840270887
98975.670911517328932
98982.800472429997171
98986.802431497329962
98985.360686181142228
98981.336819697447936
98981.43331050479901
98989.815693421609467
99008.264178256416926
99038.535514729956049
99077.983561640881817
99111.621530786476796
99117.268333780142711
99088.220949099850259
99042.332402942702174
99008.203258748122607
99003.311002659334918
99025.109722815526766
99058.253273109454312
99088.060416352178436
99107.889123066415777
99118.023522937990492
99122.475166824631742
99126.354119029841968
99132.615580096055055
99139.359570478598471
99141.018049446822261
99134.402979322258034
99123.18177103146445
99117.469651506966329
99120.491443254810292
99131.238666394885513
99146.758503440170898
99161.552329379992443
99172.14418524071516
99176.88359841563215
99176.999834219677723
99174.797006188498926
99171.773628302238649
99163.309824998825206
99144.955100453327759
99117.052803538768785
99085.802065956173465
99063.385332014790038
99061.032607272791211
99079.457706486049574
99105.898684786006925
99118.964918047771789
99106.505452941957628
99074.19882996303204
99041.057891914679203
99024.927383897229447
99031.051161863913876
99050.804639673049678
99068.689875134150498
99074.334029905759962
99068.675786888590665
99060.788366008171579
99057.657305303524481
99057.162749641705886
99050.248491731501417
99029.82667216383561
98997.562043557030847
98963.432499707996612
98938.251108189477236
98926.268815753734089
98922.86146825326432
98919.817882351329899
98913.677619724374381
98908.307923168016714
98910.350841911145835
98922.518157328202506
98939.567057047956041
98952.297718991321744
98956.387241137723322
98955.616940708801849
98957.381739033822669
98964.747726663379581
98973.496638068434549
98975.90803757350659
98967.051406654834864
98948.122721902080229
98924.878740265325177
98903.652073061879491
98888.465121478613582
98880.093139662843896
98877.536439257877646
98878.456377968599554
98879.511467557065771
98878.566239444495295
98874.257760406719171
98867.154255395318614
98860.562207117152866
98858.359610695726587
98862.075860257114982
98870.092110342608066
98879.183064482349437
98886.767680942633888
98892.702139718196122
98900.554615366796497
98915.358069691050332
98939.331321418692823
98970.466690298475442
99001.978357865446014
99023.469898351278971
99025.769008376038983
99006.745108832416008
98972.744902263730182
98934.876742047010339
98902.591843555041123
98879.423884584233747
98863.277445220868685
98850.719228834786918
98841.645300205826061
98840.167467067672987
98851.257890063759987
98886.345107795161312
98892.97981570486445
98901.559183829071117
98910.163392482980271
98914.864476562637719
98911.589533010948799
98898.662436890532263
98877.986486575871822
98854.166993272199761
98832.228604756281129
98815.488845338288229
98804.605870873201638
98798.163669899222441
98794.079870478119119
98791.059603933477774
98788.979172109815408
98788.281851436026045
98789.197356252858299
98791.150180820070091
98792.604414212735719
98791.558558630436892
98786.479237364750588
98776.90495707905211
98763.74628970088088
98749.142468922698754
98735.819407289396622
98725.983622891057166
98720.100707973018871
98716.245027245022357
98710.48068924760446
98698.44016666591051
98677.514097594103077
98648.636512094832142
98616.505292912304867
98587.808465737689403
98568.435625021680607
98561.06723424635129
98564.27790093945805
98573.706925143429544
98584.556740945423371
98594.006648396098171
98601.92570145209902
98609.699851907120319
98618.285608437028714
98626.893583410361316
98633.171163441817043
98634.662422762485221
98630.604098322975915
98622.744187244286877
98614.632673765852815
98609.839902710489696
98610.241905046146712
98615.174683804187225
98621.938943773624487
98627.233419932672405
98628.650341273503727
98625.358563072775723
98617.85741627815878
98607.147959694513702
98594.128880316449795
98579.518989557764144
98564.242779257503571
98549.679430726580904
98537.504549976045382
98529.2710305685614
98525.994178751323489
98528.008660816063639
98534.978342576665455
98546.039092330436688
98560.003344574972289
98575.500261777924607
98591.209430408256594
98606.066552543255966
98619.461630717036314
98631.203668877671589
98641.307292206663988
98649.714960519952001
98656.070086724183057
98659.746054274684866
98660.182665263826493
98657.317066850533593
98651.813280817543273
98645.109623209849815
98639.000330608454533
98635.098091444771853
98634.240135121319327
98635.977484791976167
98638.578551995291491
98639.332257694084547
98635.417989307112293
98624.953323192123207
98607.976409625072847
98586.69598525656329
98565.104277456935961
98547.550244839469087
98537.16685766982846
98534.799626762149273
98538.703302156049176
98545.279752880174783
98550.70567128957191
98552.573268268388347
98550.645915236396831
98546.550539453412057
98542.642421406388166
98540.670675872286665
98540.890097668292583
98542.252772138992441
98543.391323251722497
98543.473252429394051
98542.911230059035006
98542.949101693695411
98544.804545131046325
98548.523077742167516
98552.884807256035856
98555.753942590774386
98555.37520686147036
98551.37160251547175
98545.183090446036658
98539.654571216975455
98538.043289309905958
98542.776673331900383
98554.40259646505001
98571.201390534595703
98589.867772268917179
98606.766820879478473
98619.190377229373553
98625.959370294891414
98627.572893140866654
98625.675871656450909
98622.038778228146839
98617.860926440043841
98613.688073216471821
98609.463398095613229
98604.530181810958311
98598.017377251147991
98589.351523843128234
98578.426395774964476
98565.373528993877699
98550.354225486327778
98533.539311759363045
98515.224142285791459
98496.067370499484241
98477.21299527217343
98460.167729686407256
98446.497096657752991
98437.417180120086414
98433.545353301640716
98434.792606239017914
98440.485152887573349
98449.558592800676706
98460.692121113504982
98472.349013573257253
98482.914474842167692
98490.921351473778486
98495.353905755633605
98495.912012000451796
98493.226697719830554
98488.742701635448611
98484.413106326785055
98482.243302803122788
98483.747360056295292
98489.526612471905537
98499.041779131395742
98510.759316805764684
98522.587365728511941
98532.450863234160352
98538.883572106948122
98541.354128827093518
98540.460771105790627
98537.716280459877453
98535.149005285682506
98534.790121774494764
98538.247774803588982
98546.337464611671749
98558.993546711441013
98575.483217140514171
98594.645031440319144
98615.252916645971709
98636.204946155121434
98656.647467942355433
98676.072265504350071
98694.17279574861459
98710.667470722895814
98725.060062963806558
98736.698938014757005
98745.041719437635038
98749.960203206326696
98751.901187706156634
98751.812480889188009
98750.990871808564407
98750.800259828654816
98752.193076973795542
98755.324635773969931
98759.434825762611581
98763.20790793915512
98765.208741202950478
98764.446395167498849
98760.66731499962043
98754.481579426981625
98747.124450464034453
98740.086984686000505
98734.567106244037859
98731.299605875406996
98730.515936731244437
98732.183741017302964
98736.168970133105177
98742.449811975980992
98751.178024257504148
98762.510704032276408
98776.396710548331612
98792.267314091863227
98808.80782441975316
98824.133047668074141
98836.138711552877794
98842.961830931308214
98843.470722086771275
98837.767970210872591
98827.276663670447306
98814.425040570262354
98802.177482516621239
98793.399375328081078
98790.26116025072406
98793.887805410413421
98803.99155891679402
98819.1746286390553
98837.180583433146239
98855.462141756448545
98871.684580787608866
98884.252168020771933
98892.332838454996818
98895.971090902661672
98895.687870135880075
98892.154653871068149
98885.965039675211301
98877.480507090833271
98866.817669670170289
98854.172477826999966
98839.865847881053924
98824.671487100247759
98809.466951592592523
98795.717085291646072
98784.709802329060039
98777.425878004258266
98774.360457350980141
98775.313790807646001
98779.736879732750822
98786.501511869762908
98794.435281066515017
98802.83393902608077
98811.224153115515946
98819.36388266425638
98827.277630955868517
98834.986726003349759
98842.417666799781728
99019.866641194894328
98910.172189560340485
98793.235382742699585
98815.91910079891386
98895.047203057489241
99085.756771521264454
99205.902774429079727
99180.746004854634521
99059.128970277190092
98900.205548496553092
98779.31464421642886
98764.610427698513377
98845.515183873198112
98957.752401037781965
99026.842963820367004
99062.422194721802953
99077.561499130621087
99051.509463765600231
99016.684544200164964
99035.533231335037271
99084.999832198955119
99086.489019700908102
99024.950931670813588
98959.100964129218482
98933.488375471424661
98940.917942372572725
98951.216835844461457
98930.012151842951425
98879.170476589279133
98832.33827959127666
98806.943994870438473
98791.315315669562551
98783.691545868874528
98791.934978389224852
98808.493256551228114
98818.395246847547241
98816.437066275626421
98809.523323443674599
98803.557331425632583
98801.330317074418417
98789.03547566596535
98760.451372695097234
98722.721977142689866
98687.958353116715443
98664.343066098503186
98652.939252869909978
98656.928427706894581
98676.603301170209306
98703.932582089692005
98728.786758381087566
98746.148779109571478
98755.870068222677219
98762.006031638200511
98778.878357049296028
98813.791779949693591
98846.053523193200817
98853.443326200853335
98845.4354327092733
98845.643173154225224
98858.486966309894342
98879.477516314160312
98904.523754637571983
98927.515403606827022
98936.52187349369342
98932.422756007144926
98928.336978913765051
98925.817267302802065
98915.07114427984925
98899.694891647654003
98900.821756606281269
98929.102793746656971
98972.926134678535163
99010.184727738218498
99030.151675782472012
99033.365950805251487
99024.127091020069201
99012.298293137500877
99010.578519461851101
99022.422017258111737
99039.479381780285621
99055.09448832803173
99072.789297700001043
99097.82441611502145
99119.965385512419743
99118.095071172501775
99083.70038749356172
99035.076139176773722
99002.304102065972984
99007.579578117947676
99045.907799141379655
99094.812151246573194
99132.968151470617158
99151.605955758685013
99152.47638736978115
99143.87530767302087
99132.374870472136536
99124.799241017070017
99127.180814990861109
99138.287286285427399
99150.554040586808696
99153.529705313325394
99143.931176582322223
99130.762214580114232
99127.689294491938199
99140.71795565795037
99163.438167311571306
99181.514787208143389
99183.717197860722081
99172.04295152213308
99156.455079434643267
99145.4166552987881
99137.140273763681762
99123.775872683356283
99102.163468863698654
99078.40929991788289
99063.727576336008497
99066.366572841900052
99085.266304091419443
99106.085423266486032
99110.054661748756189
99086.670751461293548
99043.006714907314745
99000.420250897965161
98980.556170188952819
98992.419311270234175
99025.063825180812273
99056.392545567214256
99068.10323420156783
99058.530474362909445
99039.604837679929915
99026.403767715150025
99021.731924641382648
99016.478097821236588
98999.800232872541528
98970.005912899025134
98937.065248784449068
98914.438078521518037
98907.775952377181966
98910.381462831704994
98910.506027559313225
98903.243843034491874
98894.172272457639338
98892.787805477331858
98903.262525177822681
98920.462983302073553
98934.956315698189428
98943.116133298142813
98949.409934488838189
98959.861296330826008
98974.484786737753893
98986.313191188208293
98988.07420841466228
98977.582867501754663
98958.362415898198378
98937.078228722835775
98919.117065827857004
98906.569311173312599
98898.636944466328714
98892.825337235568441
98887.615567854154506
98881.063519291768898
98873.187129780577379
98865.305784959971788
98859.682245044590672
98858.946423315675929
98863.987495162713458
98873.373894069940434
98884.180980763339903
98893.853295749300742
98901.953937776663224
98910.729811965415138
98923.503788575413637
98943.399039933807217
98971.930921619248693
99005.925294495915296
99037.052427896735026
99054.909263412628206
99052.226622628280893
99029.472953573917039
98995.205004944393295
98960.671688516667928
98933.322248733966262
98914.327406751268427
98900.693072064750595
98889.77438459386758
98882.681547136598965
98883.757277105411049
98896.807598158819019
98921.595717414762476
98889.852928450127365
98892.231608316971688
98892.820211507932981
98893.351263217453379
98894.229124042627518
98893.397955662279855
98887.248157786918455
98873.149463362817187
98851.665804464588291
98826.776205935762846
98803.89696258296317
98787.204939895003918
98778.005565841216594
98774.748107156759943
98774.543012722206186
98774.86807106838387
98774.635235826601274
98774.028142891518655
98773.605744271641015
98773.428789731216966
98772.855240589939058
98770.699401312711416
98765.699155278736725
98757.182632389594801
98745.575361972936662
98732.510932737073745
98720.236272670983453
98710.673661139036994
98704.273953778581927
98699.227393395776744
98691.846520305713057
98678.170684933371376
98656.190786552091595
98627.361780901599559
98596.68227549349831
98570.801536503859097
98555.073117997351801
98551.168308016567607
98556.469019699507044
98565.664431767116184
98573.55179173120996
98577.496479927256587
98578.196383090413292
98578.475176832231227
98581.051131340471329
98586.74827162254951
98594.121977375776623
98600.506660047336482
98603.748048730762093
98603.452979280191357
98601.164655929751461
98599.40984100708738
98600.249102467045304
98604.272170941840159
98610.390277688537026
98616.437428483768599
98620.164995453829761
98619.933240228856448
98614.91264475423668
98604.970337152553839
98590.613397572436952
98573.121195821106085
98554.633673694013851
98537.880979384717648
98525.545221979060443
98519.539488367343438
98520.531672235068982
98528.01796354506223
98540.650842302304227
98556.703668292466318
98574.414707468124107
98592.209892706319806
98608.779959252176923
98623.153177979926113
98634.873740078372066
98644.027632314697257
98651.155056755524129
98656.754974372437573
98660.993227965547703
98663.578097446763422
98664.035305240948219
98661.946366836084053
98657.171119263555738
98650.037528625238338
98641.57562988573045
98633.312849640366039
98626.894884572335286
98623.328674416639842
98622.47607360179245
98622.831898952281335
98621.93477226277173
98617.414569397456944
98608.070681434066501
98594.546209328764235
98579.304626875498798
98565.752020946718403
98556.802574097629986
98553.656865329350694
98555.388370196713367
98559.40689319637022
98562.782352840382373
98563.664078105968656
98561.95802003335848
98558.998427737024031
98556.613116355685634
98555.979164750126074
98556.938606980169425
98558.375707307059201
98559.118206606217427
98558.957520868934807
98558.767787182005122
98559.980790203277138
98563.513644297272549
98568.78601611238264
98573.712803626534878
98575.5394472626067
98572.436345888738288
98564.597011668869527
98554.576151084635057
98546.277999213998555
98543.548829261388164
98548.62829235465324
98561.315979272243567
98578.962789275101386
98597.449794133819523
98612.673686941867345
98622.057198016787879
98625.201959227735642
98623.429176754230866
98619.085988382517826
98614.535472173054586
98611.127022467873758
98608.935391516322852
98607.230734224023763
98604.983772838750156
98601.126048028527293
98594.820750267157564
98585.773404046558426
98574.187767372597591
98560.487550418620231
98545.144198456211598
98528.608635853932356
98511.3612106970686
98494.020164101748378
98477.482858819144894
98462.917709757268312
98451.56776888902823
98444.486036445654463
98442.352697097419878
98445.228899117719266
98452.529026526608504
98463.029425747809
98475.006810208491515
98486.480792954593198
98495.580567919358145
98501.018640295471414
98502.473968010323006
98500.786241513225832
98497.72176601474348
98495.398556921907584
98495.626255367533304
98499.417245593722328
98506.717898340677493
98516.433223997752066
98526.707899650646141
98535.47934384184191
98541.054871222222573
98542.522336021094816
98539.977231049153488
98534.528340331889922
98528.101673247569124
98523.012619457382243
98521.469360017901636
98525.061242932817549
98534.448785064654658
98549.228047966505983
98568.19381624784728
98589.763349897490116
98612.325582555160508
98634.581825068307808
98655.657322184517398
98675.107039493115735
98692.74649178639811
98708.390256457452779
98721.616364919973421
98731.75351666174538
98738.244065277889604
98741.023262614413397
98740.793320188182406
98738.842855708542629
98736.750462466297904
98736.03453638983774
98737.708686580823269
98741.899339383424376
98747.738817948469659
98753.718252954611671
98758.225200197513914
98760.139584719130653
98759.111105472184136
98755.62159467546735
98750.750133160341647
98745.810830343703856
98741.889557373855496
98739.542044636167702
98738.801503592709196
98739.435785706809838
98741.189041819874546
98744.156227367944666
98748.715808844630374
98755.372425803929218
98764.581410335595137
98776.275848868390312
98789.716704686827143
98803.455050489574205
98815.506622931861784
98823.976672725431854
98827.553762076044222
98825.911743525299244
98819.908052463171771
98811.442619913490489
98803.115091137544368
98797.54755091998959
98796.866539790207753
98802.195925258289208
98813.471378362533869
98829.520755952617037
98848.357100774650462
98867.586213234826573
98884.87642991427856
98898.515255056016031
98907.590367496624822
98911.918493544653757
98911.913986737796222
98908.20141419263382
98901.522953453546506
98892.401991914986866
98881.320420046977233
98868.657804754358949
98854.983718103598221
98841.024812735617161
98827.696536829418619
98816.090119781161775
98807.113675679807784
98801.458869473295636
98799.111871086948668
98799.621461381393601
98802.367892303474946
98806.552042237948626
98811.524697577027837
98817.051418818009552
98823.28129943094973
98830.512866334218415
98838.883658166858368
98848.209813388879411
98857.949625762616051
98418.500105362021714
98713.684331197247957
99005.567700282001169
99099.34318381002231
99104.013563212007284
98974.382795894998708
98869.449643940854003
98917.692000713635935
98987.760719427897129
98928.746795080412994
98776.823908730628318
98700.329090509694652
98771.016080608955235
98885.96040902765526
98942.89661458232149
98968.326828067903989
98991.091789958649315
98988.597451969675603
98969.770305763348006
98989.178158747425186
99036.187735390412854
99036.281706595284049
98969.179769014735939
98899.426958320560516
98879.728221889366978
98901.95851973061508
98914.776683328498621
98880.263998387599713
98821.731107688552584
98791.074392024340341
98795.996386566534056
98806.210911975664203
98801.593592954945052
98792.609739395513316
98800.641768160436186
98825.56741532770684
98846.133235090223025
98846.110323346278165
98826.847363189823227
98796.981045020642341
98763.755385103810113
98732.740847088207374
98710.606865575144184
98694.603397551414673
98678.79238356584392
98663.260265546035953
98662.549140132701723
98690.778826788518927
98744.063101707142778
98791.015385318096378
98806.722339474144974
98793.009803704626393
98778.431408277290757
98795.431986708848854
98842.714431794302072
98880.146450580345117
98880.380902869335841
98864.629732913672342
98864.898221284267493
98884.15311636099068
98904.374050579499453
98916.343770043211407
98924.539808376095607
98931.762821162774344
98939.654069285345031
98949.02909435024776
98957.042960056089214
98956.87318240791501
98949.302099405729678
98950.531106027716305
98973.679667524178512
99012.918956433612038
99049.545325312341447
99068.700523975596298
99064.817646296520252
99050.516750683833379
99042.059656554352841
99051.057228986799601
99070.29093712271424
99080.366568574754638
99077.744588102053967
99077.89859420034918
99091.358799949215609
99108.169160352073959
99105.258175095455954
99073.877602869251859
99032.240108734709793
99014.107947986762156
99037.618410710114404
99092.770341942275991
99148.035893218795536
99177.914666936281719
99179.250372362090275
99165.891761878214311
99147.698906266465201
99129.992260165963671
99118.734816976822913
99122.904224623722257
99146.768377708402113
99175.192391630407656
99186.4592093261017
99168.351938387088012
99139.845647930706036
99128.388744754847721
99146.91704513168952
99181.383432389106019
99201.632076187132043
99190.186767085426254
99155.160793362636468
99119.523750381122227
99098.594158487161621
99092.075780370883876
99089.475051388144493
99082.965637212255388
99075.614520463277586
99073.257109224316082
99078.822441270574927
99088.165740677461145
99091.89633597023203
99080.139541215947247
99048.166857990334393
99002.16828589871875
98959.534205712683615
98939.914096423439332
98953.600349269938306
98991.393888712787884
99029.098027063344489
99045.564193469457678
99036.53289890672022
99014.438474260634393
98995.777112487659906
98986.568241617438616
98979.469415958184982
98963.350940357355285
98936.433317343748058
98909.459806051716441
98895.043670196871972
98895.656050041521667
98902.125377774224035
98902.62729452237545
98893.407662257799529
98882.143380267123575
98879.280629526168923
98887.754928843365633
98901.865782593595213
98914.258809320846922
98924.159673846603255
98936.95003004874161
98955.744363290054025
98977.087461987073766
98992.666832614588202
98995.809895685233641
98986.552769839516259
98970.101119248181931
98952.420084848505212
98937.527632171826554
98926.979827327930252
98920.235836212144932
98914.987846312040347
98907.656640521658119
98897.416274494564277
98885.091245504401741
98873.57224624119408
98867.17203180915385
98868.60105621474213
98876.953096645214828
98889.111680316957063
98901.316966563390451
98911.597759209224023
98921.062849512003595
98932.519523153736372
98949.175943670008564
98973.14033014915185
99003.478245050893747
99035.351623847673181
99060.95377833841485
99072.555366789078107
99066.695897912446526
99046.470528234727681
99019.840710231103003
98994.741379502156633
98974.872681502994965
98959.471730853998451
98946.465415873884922
98935.866279123176355
98930.599529957587947
98934.475816624355502
98949.096613362271455
98972.278096831694711
98892.600861289902241
98890.617650008309283
98882.99938720749924
98873.266418522733147
98864.617376382419025
98857.591484031523578
98849.711006264638854
98837.545631470580702
98819.610611001655343
98797.745738188925316
98776.426923044404248
98760.367447839758825
98752.152130240530823
98751.302265922437073
98755.007191882759798
98759.859401575449738
98763.439255143210175
98764.808673475869
98764.099399816754158
98761.796618224441772
98758.198987764262711
98753.198773865471594
98746.412132242534426
98737.556139303458622
98726.784116363967769
98714.918205347188632
98703.521877874736674
98694.118799844378373
98687.192590296355775
98681.2489545144781
98673.028749668432283
98659.116551568164141
98638.069707464790554
98611.736136659616022
98584.940166210770258
98563.566031816852046
98551.774482046297635
98549.927209248009603
98554.499429944175063
98560.045694903179538
98562.082356861676089
98559.10194693847734
98552.955308944889111
98547.523327675895416
98546.489868226752151
98551.422821787869907
98561.184696145603084
98572.684104188534548
98582.510965257955831
98588.565906741074286
98590.793594396687695
98590.934842917544302
98591.426542628818424
98594.140269866533345
98599.613485612149816
98606.875337544493959
98613.814064486126881
98617.846169872791506
98616.716229712241329
98609.110173049019068
98595.171086271351669
98576.692533222681959
98556.845407476794207
98539.465408589603612
98528.019576935301302
98524.640835314625292
98529.667973832212738
98541.79572003420617
98558.67776945438527
98577.76998562089284
98596.857519609446172
98614.401643187913578
98629.35806385971955
98641.20992701164505
98649.897401212787372
98655.727852463402087
98659.363768367518787
98661.653641357901506
98663.308846305561019
98664.646427827770822
98665.391620720431092
98664.67774683382595
98661.37167689060152
98654.629949499649229
98644.572042685118504
98632.613393965162686
98621.115624280879274
98612.600751299003605
98608.672184231720166
98609.123954268521629
98611.982831485001952
98614.31233005017566
98613.497534820766305
98608.45022240387334
98600.069021922638058
98590.668151716788998
98582.819762579965754
98578.222838736270205
98576.933403239600011
98577.563909742602846
98578.287370531994384
98577.844200098857982
98576.233477147383383
98574.401535402954323
98573.549085077087511
98574.165163653291529
98575.787750417424832
98577.209548916027416
98577.533369568845956
98576.987466888240306
98576.846466534392675
98578.630766791844508
98582.943269910407253
98588.654544869947131
98593.2460913934774
98593.763127651225659
98588.450901568532572
98578.007025578117464
98565.586534985442995
98555.627788778874674
98552.130940128918155
98557.028337578769424
98569.435734388229321
98586.043007108091842
98602.354250553325983
98614.398267868542462
98619.952760365718859
98619.305117965719546
98614.696383576068911
98609.081108416896313
98605.002591972210212
98603.737964919957449
98605.00438754609786
98607.272027947794413
98608.67341021852917
98607.730473695453838
98603.668073772496427
98596.46209527074825
98586.612988813925767
98574.810385705030058
98561.690544561759452
98547.720208376456867
98533.169371595271514
98518.188417896002647
98503.00597027259937
98488.212815146238427
98474.930070425514714
98464.600660392999998
98458.6118130038667
98457.846794875964406
98462.306054259548546
98471.052323512922158
98482.371917022523121
98494.130835410294821
98504.262236956099514
98511.30570954423456
98514.804400356617407
98515.446378624561476
98514.848638034876785
98514.936863039300079
98517.231779773370363
98522.330861584559898
98529.784310874892981
98538.24042217854003
98545.895132218443905
98550.984790857604821
98552.240929082792718
98549.196101529349107
98542.309099554127897
98532.948528293767595
98523.198533336253604
98515.470084536063951
98512.046640501619549
98514.579204101159121
98523.763730650403886
98539.171564938515075
98559.355753224619548
98582.281597845139913
98605.902543069008971
98628.600598220698885
98649.402581870919676
98667.930076441058191
98684.116242908276035
98697.935400623377063
98709.26056232508563
98717.725667908263858
98722.918465925205965
98724.79242678519222
98723.996524571819464
98721.851310888072476
98719.941049548157025
98719.679676598345395
98721.955783559038537
98726.916589558910346
98733.899574015013059
98741.6215473949851
98748.650031344412128
98753.818674992784509
98756.638921735517215
98757.281582059018547
98756.413619192506303
98754.861999336950248
98753.269987315827166
98751.909253210862516
98750.722923294000793
98749.495682652341202
98748.134222172666341
98746.91306500621431
98746.526917801020318
98747.889983037763159
98751.827376367393299
98758.730853531349567
98768.341541721907561
98779.697494858235586
98791.258296488245833
98801.274639592753374
98808.276924969875836
98811.552390215612832
98811.324528313867631
98808.767084479826735
98805.825999712964403
98804.596836835698923
98806.829182743022102
98813.596172665478662
98824.963458734375308
98840.043445979405078
98857.278441954040318
98874.705460016804864
98890.504058927603182
98903.219189314055257
98912.032420827061287
98916.676046264357865
98917.409979837582796
98914.659020318300463
98909.055580891115824
98901.185502623236971
98891.583952714892803
98880.782801057124743
98869.411238503831555
98858.270253681068425
98848.124819767152076
98839.714360442463658
98833.719376801207545
98830.249458430305822
98829.015475199557841
98829.342979605309665
98830.328864162933314
98831.586030053382274
98833.089087206564727
98835.034774700907292
98838.239579641551245
98843.649438442400424
98851.548912636440946
98861.584789547996479
98872.911798557106522
98884.110242726412253
98819.834756863856455
98611.243414709970239
98578.195997481961967
98755.981177411755198
98992.285186746070394
99003.908293336528004
98896.013287505862536
98877.518487393608666
98934.130676460830728