/*--------------------------------*- C++ -*----------------------------------*\
  =========                 |
  \\      /  F ield         | OpenFOAM: The Open Source CFD Toolbox
   \\    /   O peration     | Website:  https://openfoam.org
    \\  /    A nd           | Version:  12
     \\/     M anipulation  |
\*---------------------------------------------------------------------------*/
FoamFile
{
    format      ascii;
    class       volScalarField;
    location    "0.0056";
    object      pPrime2Mean;
}
// * * * * * * * * * * * * * * * * * * * * * * * * * * * * * * * * * * * * * //

dimensions      [2 -2 -4 0 0 0 0];

internalField   nonuniform List<scalar> 
75962
(
1020152.7333374023438
1000710.0940895080566
992121.66275596618652
985924.74488639831543
980856.50440788269043
976243.77620887756348
971750.94353485107422
967244.44211006164551
962675.49986267089844
958104.1305103302002
953552.66989326477051
949071.28141784667969
944679.02321815490723
940319.83959197998047
936000.18691635131836
931770.15901756286621
927666.02711296081543
923712.43578720092773
919859.74614524841309
916021.2847957611084
912175.72139549255371
908372.43341255187988
904700.47160530090332
901194.77189064025879
897891.29525184631348
894826.2762451171875
892013.98493957519531
889470.72977256774902
887204.3929328918457
885179.65399169921875
883355.1236686706543
881704.71063232421875
880198.45046997070312
878788.36052131652832
877423.3230152130127
876073.32315444946289
874738.61901092529297
873420.86776351928711
872114.35868453979492
870802.48978996276855
869469.93117523193359
868105.64960479736328
866694.52506256103516
865214.45780944824219
863644.17355155944824
861969.07117080688477
860188.19560623168945
858298.51673889160156
856304.08052062988281
854200.62892723083496
851978.65501976013184
849638.12820816040039
847173.59292221069336
844578.37300682067871
841871.15239334106445
839079.35843467712402
836227.88244819641113
833338.59740447998047
830431.05221176147461
827530.93109512329102
824673.70725250244141
821893.14584159851074
819203.11816215515137
816602.68376731872559
814088.04933929443359
811649.8973388671875
809275.20504951477051
806952.16248321533203
804675.25185966491699
802435.19968032836914
800217.5255241394043
798003.91952133178711
795777.03770446777344
793526.68364334106445
791251.75057792663574
788952.9167652130127
786626.36779975891113
784267.52689170837402
781873.76744842529297
779440.97280120849609
776969.77017974853516
774471.39376258850098
771962.86819839477539
769455.45982360839844
766957.1034107208252
764480.70213890075684
762034.97855186462402
759618.76070594787598
757232.79264640808105
754887.19616508483887
752592.98702430725098
750351.96261405944824
748161.21759033203125
746018.52215003967285
743930.45145797729492
741910.69612312316895
739965.66120147705078
738087.12908363342285
736253.68353462219238
734442.38363075256348
732639.30488586425781
730844.86234283447266
729067.9842700958252
727315.02679824829102
725580.89639472961426
723854.61629676818848
722126.58249092102051
720385.58766555786133
718616.09669303894043
716802.2131233215332
714934.62377738952637
713016.13190078735352
711057.75175476074219
709066.47788047790527
707038.80839157104492
704965.7675895690918
702840.58675575256348
700658.70491981506348
698411.1000804901123
696085.9369945526123
693677.46391296386719
691189.20537376403809
688632.72070693969727
686021.97241401672363
683366.4289493560791
680670.39754104614258
677941.85811042785645
675195.37192535400391
672448.04741668701172
669716.95060348510742
667017.83174133300781
664364.55793762207031
661768.56500434875488
659236.7226448059082
656769.85515022277832
654365.61750221252441
652021.7505054473877
649737.06060028076172
647511.76950836181641
645346.14165306091309
643237.99190711975098
641181.36839294433594
639167.07326507568359
637181.67630004882812
635210.35958862304688
633244.36804389953613
631284.30319595336914
629334.25470733642578
627391.52245903015137
625441.86579704284668
623464.16380310058594
621440.13069534301758
619362.82361793518066
617238.02046775817871
615077.72019195556641
612892.66045188903809
610690.23962020874023
608476.08436012268066
606255.71438217163086
604031.08818817138672
601793.2459888458252
599524.2510986328125
597211.66805267333984
594860.3379955291748
592487.59564590454102
590107.95891952514648
587724.58794403076172
585332.99492835998535
582932.9427661895752
580535.01233100891113
578153.79999351501465
575796.07345008850098
573459.62810707092285
571141.73919296264648
568842.93591499328613
566565.00334548950195
564311.2441463470459
562088.10973739624023
559902.46779632568359
557758.28933525085449
555657.15598297119141
553601.52106666564941
551596.64746284484863
549647.64154624938965
547753.54754447937012
545904.12717056274414
544084.30279159545898
542282.66470527648926
474495.86261558532715
472902.99066734313965
471299.46180725097656
469682.33065032958984
468050.27558898925781
466405.45014953613281
464751.45293998718262
463089.27885246276855
461416.88557624816895
459733.05325126647949
458040.77269554138184
456345.6408805847168
454652.21765899658203
452962.04057693481445
451273.52369499206543
449581.96187019348145
447880.29621315002441
446162.19229125976562
444425.7871036529541
442674.876708984375
440916.83602333068848
439158.63069152832031
437402.86819458007812
435646.29971885681152
433882.94192695617676
432110.12226104736328
430331.46220779418945
428553.59619140625
426781.48201370239258
425017.68729400634766
423265.04572868347168
421527.81804275512695
419811.00501251220703
418120.88224029541016
416466.14705276489258
414856.5161190032959
413298.47133445739746
411791.48193740844727
410326.83856010437012
408890.42654228210449
407468.83980941772461
406055.30261039733887
404651.51250839233398
403264.37443161010742
401900.54836463928223
400562.37874412536621
399247.22100639343262
397950.28477668762207
396668.94527626037598
395405.24390029907227
394164.13389015197754
392949.33120727539062
391761.00324249267578
390596.52581405639648
389452.20282173156738
388323.37757110595703
387203.6821346282959
386086.03050994873047
384965.37395286560059
383840.89910125732422
382715.36752128601074
381591.70165252685547
380469.37507057189941
379343.19385719299316
378205.61579132080078
377050.78381156921387
375877.04166984558105
374686.29791641235352
373481.21323776245117
372263.38914680480957
371033.7978458404541
369792.87998390197754
368539.06488609313965
367267.92472648620605
365974.20100212097168
364655.67268753051758
363315.02361869812012
361957.45449066162109
360586.29660606384277
359201.17608070373535
357799.7523193359375
356379.77714538574219
354938.8664608001709
353473.47096633911133
351979.53984451293945
350454.8420581817627
348900.5512809753418
347320.9963436126709
345722.45413017272949
344111.48141098022461
342493.15812492370605
340870.00948333740234
339242.31205940246582
337609.55354309082031
335971.84962272644043
334330.45922088623047
332687.0186939239502
331042.93165969848633
329400.41679954528809
327764.64316940307617
326143.99399566650391
324547.1353702545166
322979.71946334838867
321443.64574813842773
319938.19941520690918
318460.90922546386719
317008.18737602233887
315576.36229705810547
314162.29752922058105
312762.86850166320801
311374.5850658416748
309995.34819221496582
308627.0202522277832
307275.45777320861816
305946.72908401489258
304642.77565383911133
303360.23288154602051
302093.41098785400391
300839.2089672088623
299599.79755020141602
298380.43186187744141
297184.32757949829102
296009.56458854675293
294850.34847831726074
293700.71916961669922
292556.96822166442871
291417.16144752502441
290279.36704444885254
289141.0072193145752
287999.92756652832031
286855.96281051635742
285710.7979736328125
284565.77769660949707
283419.81181144714355
282269.06262016296387
281108.35060501098633
279932.55545997619629
278736.87510299682617
277516.33939933776855
276266.1346263885498
274983.4150276184082
273669.33235359191895
272329.97300720214844
270974.91631698608398
269613.83610534667969
268252.74913597106934
266892.2027645111084
265528.63005256652832
264157.40549659729004
262774.82572555541992
261378.15932655334473
259964.7486400604248
258532.09582901000977
257079.13441467285156
255607.27105712890625
254119.93401336669922
252620.9528636932373
251113.50656890869141
249600.3636646270752
248084.86699676513672
246571.58054161071777
245065.98831558227539
243573.26863288879395
242096.73272132873535
240636.9286937713623
239192.32379150390625
237761.17751502990723
236343.20467567443848
234939.77446365356445
233552.75941467285156
232183.44617080688477
230832.61340713500977
229501.35539817810059
228191.59395790100098
226905.95450782775879
225647.28390693664551
224418.10500907897949
223219.96111679077148
222053.19208335876465
220917.67360305786133
219814.02781677246094
218743.83778381347656
217708.12334632873535
216705.26404571533203
215730.1630859375
214775.60138893127441
213835.01222991943359
212904.91970443725586
211985.54318237304688
211079.42368316650391
210189.06085205078125
209315.17636489868164
208456.65329742431641
207611.72672462463379
206779.22783470153809
205958.83488273620605
205150.49095726013184
204353.93095588684082
203568.73797988891602
202794.57219505310059
202031.05881118774414
201277.46038627624512
200532.49639511108398
199794.29765129089355
199060.32878684997559
198327.2832088470459
197591.29334449768066
196848.66630172729492
196096.54506301879883
195332.68510627746582
194554.52029037475586
193758.96557426452637
192943.64296913146973
192108.69344139099121
191257.20827865600586
190393.42069816589355
189519.95655822753906
188636.37202644348145
187739.96670913696289
186828.0173168182373
185899.69030952453613
184956.72120094299316
184003.08346557617188
183044.28925704956055
182086.61305236816406
181136.1170482635498
180197.58235740661621
179273.53625297546387
178363.78243827819824
177465.65457725524902
176575.26222038269043
175689.55204772949219
174808.31122398376465
173934.75192451477051
173074.02252578735352
172230.69937705993652
171407.0889835357666
170603.42425727844238
169819.37711906433105
169055.26284980773926
168312.04065704345703
167590.69306564331055
166892.18745040893555
166218.16443061828613
165571.54763984680176
164956.08811950683594
164375.30851936340332
163831.80101203918457
163327.35465431213379
162863.4448127746582
162441.31678009033203
162061.3964729309082
161722.64689826965332
161422.26680946350098
1045300.8433589935303
1017434.5558395385742
1004681.9997749328613
995256.40974998474121
987973.84604454040527
981926.82211685180664
976445.8490047454834
971256.81496047973633
966212.94851493835449
961220.20973014831543
956164.41854476928711
951046.50832557678223
945957.80730247497559
940976.97943687438965
936152.56756019592285
931533.04132843017578
927138.83510971069336
922980.76237297058105
919077.95000648498535
915365.82647132873535
911757.05335998535156
908227.47517585754395
904807.87457847595215
901511.63314247131348
898325.24555206298828
895269.56410980224609
892377.44243049621582
889681.3738842010498
887229.79474449157715
885033.61884117126465
883082.70545768737793
881353.95877456665039
879812.97966194152832
878420.44200897216797
877120.32588577270508
875872.68827629089355
874653.23014259338379
873429.8597240447998
872171.34721755981445
870859.12136268615723
869476.80322074890137
868017.41199493408203
866471.16535377502441
864834.89980697631836
863104.352294921875
861273.47228240966797
859343.26935768127441
857317.29183769226074
855198.24578666687012
852989.04445266723633
850685.77833557128906
848281.86094284057617
845781.98471832275391
843183.41677665710449
840488.6602668762207
837707.72758674621582
834859.25828170776367
831965.30144882202148
829049.3455982208252
826141.89267158508301
823285.55109786987305
820523.60206031799316
817881.7232837677002
815356.92831611633301
812934.86980819702148
810596.90738677978516
808327.90819358825684
806113.07407379150391
803942.31456184387207
801803.09392356872559
799680.74532699584961
797552.65866470336914
795398.18346786499023
793212.0583610534668
791004.38330268859863
788783.80129814147949
786547.04702186584473
784279.53952789306641
781967.40011978149414
779603.31993103027344
777188.13309860229492
774739.55404090881348
772281.75555992126465
769830.04023933410645
767385.69277191162109
764952.49644470214844
762539.57778358459473
760153.20009803771973
757799.04810523986816
755484.1629467010498
753211.14945983886719
750975.28521728515625
748773.06095314025879
746605.19164848327637
744479.72984886169434
742411.64783668518066
740412.68824768066406
738476.3885326385498
736579.53461074829102
734694.67953491210938
732804.78223991394043
730912.20218849182129
729034.63879013061523
727183.32199668884277
725355.92786598205566
723542.05163192749023
721732.00884628295898
719918.41506004333496
718091.56109237670898
716239.34133911132812
714350.30180740356445
712419.37818145751953
710450.34209442138672
708446.32307815551758
706404.1415958404541
704321.65619087219238
702200.20776557922363
700036.93499183654785
697817.5253849029541
695523.85969924926758
693146.24138259887695
690687.16445541381836
688156.21646881103516
685566.17031478881836
682926.58845138549805
680239.96539878845215
677508.56716728210449
674744.18034934997559
671966.71611976623535
669197.90057373046875
666458.32926750183105
663766.13842010498047
661134.55790710449219
658567.6954460144043
656062.54449653625488
653616.50710868835449
651230.32889938354492
648905.78962898254395
646643.25029945373535
644442.17660903930664
642301.27093887329102
640217.56421661376953
638184.61813735961914
636187.42268943786621
634205.01476860046387
632224.23110771179199
630247.77193641662598
628285.16628646850586
626337.80080413818359
624392.05177307128906
622426.15799140930176
620421.95159721374512
618372.16576194763184
616281.07918167114258
614157.20384788513184
612006.87094116210938
609835.6218147277832
607651.69573783874512
605464.67150688171387
603277.81000518798828
601081.27661323547363
598857.86525726318359
596597.53481292724609
594304.69443511962891
591992.68399620056152
589673.29012298583984
587349.175048828125
585014.74042892456055
582664.75149726867676
580303.57217788696289
577944.06263542175293
575597.89469909667969
573270.99819183349609
570966.11147880554199
568683.37828636169434
566419.25697326660156
564172.16939353942871
561948.73538970947266
559760.17593955993652
557614.35543060302734
555514.52327919006348
553462.20646858215332
551458.56716537475586
549504.24419403076172
547597.24554824829102
545730.09309196472168
543890.98234939575195
542070.38261604309082
540264.93825721740723
476149.33154106140137
474536.78496360778809
472917.77251625061035
471289.79730987548828
469648.92084884643555
467993.00954627990723
466324.68390846252441
464648.93137168884277
462967.34185600280762
461276.97377395629883
459575.50571823120117
457865.51238441467285
456153.3559513092041
454444.87027931213379
452742.42448997497559
451044.05583381652832
449343.62950706481934
447632.53364181518555
445903.4918327331543
444154.86072158813477
442391.78163528442383
440623.2501163482666
438857.34773063659668
437097.06769180297852
435338.86462020874023
433575.44603157043457
431801.78746223449707
430019.39317321777344
428234.30767631530762
426452.11701583862305
424676.42378044128418
422910.67988395690918
421158.93777465820312
419425.85731315612793
417718.71175956726074
416049.03178787231445
414429.30623054504395
412866.07493782043457
411355.49261856079102
409884.96165657043457
408438.83963966369629
407004.85153198242188
405578.52225112915039
404163.38618469238281
402767.08934783935547
401396.13115501403809
400052.43349075317383
398732.99394226074219
397432.44182205200195
396147.12807846069336
394877.69734573364258
393628.76164245605469
392406.60286331176758
391215.91806411743164
390057.56418609619141
388927.83395576477051
387819.2453727722168
386722.26505470275879
385627.68000030517578
384528.67964363098145
383421.87296676635742
382307.18052864074707
381186.43706130981445
380060.9029426574707
378928.85435485839844
377785.51238632202148
376625.73788070678711
375447.20315170288086
374251.52190017700195
373042.31671333312988
371822.70596694946289
370594.36924743652344
369357.80140495300293
368111.469970703125
366850.32691764831543
365567.21584510803223
364257.59301948547363
362922.82468032836914
361567.90505981445312
360196.3827953338623
358808.22772026062012
357401.86626434326172
355975.98795700073242
354528.4588680267334
353055.02902603149414
351550.82132339477539
350013.4798412322998
348444.93881416320801
346850.73930168151855
345238.35829162597656
343615.24613761901855
341986.79427528381348
340354.60197448730469
338717.08646965026855
337072.57327079772949
335422.32656860351562
333770.43001556396484
332120.72712707519531
330474.55558967590332
328832.07846450805664
327195.90274238586426
325572.75249862670898
323971.47098159790039
322399.53625106811523
320860.94621467590332
319355.84506225585938
317881.37126541137695
316433.51716804504395
315009.28822708129883
313607.04008483886719
312224.53876304626465
310857.81130218505859
309502.94935035705566
308159.51871681213379
306831.60359001159668
305524.78883171081543
304241.78671455383301
302980.53828239440918
301736.47530364990234
300507.20308876037598
299295.15421676635742
298105.47155570983887
296940.95623397827148
295799.05828857421875
294673.37277030944824
293557.32586479187012
292446.36320114135742
291337.29351043701172
290226.78987121582031
289111.58649063110352
287990.33555603027344
286864.85244750976562
285738.89239501953125
284615.28275680541992
283493.38541793823242
282368.77535438537598
281234.76609992980957
280084.29460906982422
278911.08695602416992
277709.97987365722656
276477.19692420959473
275211.15250587463379
273913.70669555664062
272590.55976676940918
271249.98779678344727
269899.86582374572754
268544.72994041442871
267184.97897529602051
265818.65281867980957
264443.84249305725098
263059.46883010864258
261664.14651870727539
260255.16645812988281
258829.28768157958984
257384.79910659790039
255922.75625801086426
254446.20475196838379
252958.40115165710449
251461.96062088012695
249959.45182609558105
248454.21781921386719
246950.59480285644531
245453.34588241577148
243966.52884864807129
242492.3913631439209
241031.16524505615234
239582.03047561645508
238144.57234001159668
236719.45535850524902
235307.99675941467285
233911.28485107421875
232529.98316192626953
231164.98010635375977
229818.06678009033203
228491.86537742614746
227189.1555118560791
225912.41624450683594
224663.68426322937012
223444.40023422241211
222255.3079776763916
221096.98233985900879
219970.59369087219238
218877.98301696777344
217820.50714492797852
216797.19388771057129
215803.71202087402344
214833.14592552185059
213878.40296745300293
212934.84582328796387
212001.65515899658203
211081.17765617370605
210176.71676826477051
209290.37339401245117
208422.2133674621582
207571.03037261962891
206735.64233016967773
205915.6025505065918
205110.93506622314453
204321.39151763916016
203546.09673500061035
202783.78068542480469
202033.19516754150391
201293.32740211486816
200563.30835914611816
199841.95172500610352
199126.92636299133301
198414.10334205627441
197698.0296630859375
196973.58340072631836
196237.43241500854492
195488.01416778564453
194724.17357444763184
193944.10495567321777
193146.01909446716309
192329.87221145629883
191498.17309188842773
190654.59097671508789
189801.21980476379395
188937.00520706176758
188058.57907104492188
187162.65265274047852
186248.25597381591797
185317.26869964599609
184373.47934150695801
183421.52792167663574
182466.69947242736816
181515.1946907043457
180573.73089027404785
179647.8624439239502
178739.55262565612793
177845.99105262756348
176961.13163948059082
176079.37773895263672
175198.94622611999512
174322.82522964477539
173456.88066864013672
172606.8342113494873
171776.33076667785645
170966.99224662780762
170179.5130558013916
169414.39839744567871
168671.69704818725586
167950.51527786254883
167249.4746036529541
166568.26510238647461
165909.05378723144531
165276.47738075256348
164676.07454681396484
164112.57827377319336
163589.31513786315918
163108.67149543762207
162672.58124160766602
162282.28207969665527
161937.28908920288086
161634.40396690368652
1014566.0209159851074
999632.77892112731934
992638.7263298034668
986318.1567325592041
980733.55374908447266
975761.09156036376953
971251.19117546081543
966956.93239212036133
962701.78346061706543
958378.99324798583984
953926.34777641296387
949280.4023380279541
944455.02333641052246
939560.34798812866211
934701.60651588439941
929982.70307159423828
925479.98410606384277
921233.68834114074707
917270.67230033874512
913573.80227661132812
910095.73622131347656
906786.09893226623535
903628.28937911987305
900621.60993385314941
897714.76315307617188
894888.52538108825684
892155.75003242492676
889537.58195495605469
887078.58397483825684
884815.80708312988281
882772.53326606750488
880951.45583534240723
879336.18492126464844
877881.7132511138916
876540.30338668823242
875278.69879722595215
874082.47704124450684
872921.72751045227051
871748.08121871948242
870510.60881042480469
869177.63642501831055
867739.7630615234375
866188.24719619750977
864518.35677528381348
862730.77124214172363
860821.43250274658203
858793.54397773742676
856664.30430793762207
854440.60338592529297
852120.91908836364746
849710.72610092163086
847215.36572456359863
844644.9715461730957
842004.46283340454102
839289.27744674682617
836497.41245079040527
833638.7620964050293
830735.43147277832031
827812.11136245727539
824905.12949371337891
822053.99847221374512
819295.49601173400879
816654.13998222351074
814134.3151683807373
811722.88101959228516
809400.62055969238281
807154.79347801208496
804976.52403831481934
802853.96433067321777
800770.33171844482422
798707.91183471679688
796643.21907997131348
794558.70362091064453
792452.02083587646484
790338.73112487792969
788232.95171165466309
786126.79932022094727
783995.92601203918457
781811.28582382202148
779560.3131217956543
777247.05684280395508
774893.1461009979248
772523.79631423950195
770148.84483909606934
767764.96457099914551
765372.28182601928711
762981.75605201721191
760608.36973571777344
758262.32763671875
755943.42206573486328
753647.26350784301758
751374.83877944946289
749131.73657035827637
746922.86957550048828
744752.29498100280762
742631.39433288574219
740570.60329246520996
738562.52801322937012
736584.48392295837402
734609.81012153625488
732624.52973175048828
730637.54193305969238
728670.87501335144043
726736.00344467163086
724826.10395812988281
722926.38132095336914
721028.30876159667969
719136.18420600891113
717255.29788398742676
715378.04992866516113
713485.09381294250488
711559.83786010742188
709597.69179153442383
707598.54922103881836
705561.8697681427002
703492.00189590454102
701396.86050224304199
699274.71334457397461
697107.7938060760498
694871.95641708374023
692552.58590316772461
690148.55060577392578
687666.3837890625
685116.30414772033691
682507.70750999450684
679844.62217903137207
677128.18822860717773
674366.7742919921875
671579.80788421630859
668792.15602874755859
666028.82291221618652
663312.41311073303223
660657.49508285522461
658065.55037689208984
655530.32675552368164
653047.88217353820801
650620.25849342346191
648251.60677719116211
645944.77750968933105
643701.0631046295166
641520.03006172180176
639399.79825592041016
637335.08354759216309
635310.82099533081055
633303.17317962646484
631295.82841491699219
629291.74453353881836
627303.5771312713623
625335.51142883300781
623375.66818046569824
621403.18394088745117
619400.6805362701416
617361.9960823059082
615290.6378288269043
613191.93860626220703
611069.72866630554199
608929.43942642211914
606779.97677612304688
604629.70267677307129
602480.01044845581055
600322.99888038635254
598147.67402839660645
595950.1768741607666
593735.13995933532715
591510.31710243225098
589280.8607006072998
587046.45309257507324
584800.47828674316406
582534.68635177612305
580248.39204406738281
577952.09720993041992
575659.98076248168945
573382.27797889709473
571123.14982604980469
568879.70376968383789
566644.23065185546875
564413.71282768249512
562197.10392951965332
560010.1685619354248
557865.29317665100098
555767.83339881896973
553717.28615188598633
551708.49437522888184
549735.16008377075195
547793.83718490600586
545882.41192626953125
543996.7308177947998
542132.07158851623535
540286.43983459472656
476295.00751876831055
474653.72616386413574
473008.06440734863281
471353.66464042663574
469684.60769844055176
467998.78523635864258
466301.14157867431641
464599.14792823791504
462895.3509578704834
461186.22468948364258
459467.89890480041504
457741.02128410339355
456010.44485664367676
454282.17301940917969
452559.89155578613281
450842.35781097412109
449123.06882095336914
447393.14667129516602
445645.82633018493652
443880.03606224060059
442101.31097793579102
440319.15069198608398
438542.6610221862793
436776.24994277954102
435017.21311378479004
433257.44165992736816
431489.76251411437988
429713.34162902832031
427932.69107055664062
426152.7799129486084
424377.1504955291748
422609.43069076538086
420853.99914932250977
419115.99689292907715
417403.45198822021484
415728.66057777404785
414103.88450813293457
412533.52054405212402
411010.55167961120605
409520.62674140930176
408049.85267639160156
406590.45490646362305
405141.97290802001953
403709.29186630249023
402299.31052207946777
400917.23755836486816
399563.74921989440918
398235.1833438873291
396926.53051948547363
395634.85095405578613
394360.67993927001953
393107.88274383544922
391882.98367691040039
390692.98885345458984
389540.86875343322754
388422.35761642456055
387327.55379867553711
386245.6069278717041
385167.45069313049316
384085.44021606445312
382993.3048152923584
381888.11372184753418
380771.24345588684082
379645.96785545349121
378513.30992317199707
377370.14674949645996
376211.26432800292969
375033.27628326416016
373836.88282775878906
372625.88010025024414
371404.42642974853516
370175.54439735412598
368940.84157371520996
367699.24918365478516
366445.23419380187988
365170.20976066589355
363867.80361938476562
362537.8781795501709
361184.54054641723633
359810.94773292541504
358417.29067993164062
357002.92124176025391
355568.01370048522949
354111.89389610290527
352630.90143966674805
351119.91179275512695
349576.17501831054688
348001.58075714111328
346401.93541717529297
344784.88637542724609
343157.85371589660645
341525.85379409790039
339889.77775573730469
338247.21132278442383
336596.26010894775391
334939.22851371765137
333282.32948684692383
331631.55789947509766
329989.06288909912109
328353.82999420166016
326725.78041076660156
325108.87122917175293
323510.63958168029785
321939.24282073974609
320400.26152801513672
318894.83408355712891
317420.36700248718262
315973.38339805603027
314552.13405609130859
313156.32833480834961
311784.69751739501953
310433.56605529785156
309098.81062126159668
307779.24301910400391
306477.61442375183105
305198.31353378295898
303943.57082557678223
302711.66769409179688
301498.77202224731445
300302.91379356384277
299126.11297035217285
297972.18200302124023
296842.40329933166504
295733.55770874023438
294639.5779972076416
293554.41705703735352
292473.00604438781738
291390.37979507446289
290301.42988777160645
289202.59576416015625
288094.18591117858887
286980.60277366638184
285867.87723922729492
284760.07992362976074
283656.94873237609863
282553.63519477844238
281442.1431827545166
280313.62831497192383
279160.594482421875
277977.91735458374023
276762.86817169189453
275515.14737129211426
274237.28349113464355
272934.67908668518066
271614.13294410705566
270281.21221542358398
268938.33400917053223
267585.14997482299805
266220.74240493774414
264845.41835975646973
263460.35382652282715
262065.69563293457031
260659.57362174987793
259239.31826591491699
257803.85653305053711
256354.76919555664062
254894.90730476379395
253426.37219619750977
251950.20858001708984
250467.64167785644531
248981.19766616821289
247494.57105827331543
246011.67206192016602
244535.61037063598633
243068.07398796081543
241609.37716484069824
240159.34980583190918
238718.25295257568359
237287.06492233276367
235867.04682540893555
234459.33235740661621
233065.01901054382324
231685.65257453918457
230323.50189781188965
228981.27951240539551
227661.50869178771973
226366.14338874816895
225096.54268264770508
223853.68279457092285
222638.53839683532715
221452.41879081726074
220297.16518783569336
219174.96954154968262
218087.49610710144043
217034.69453239440918
216013.81464004516602
215019.45297241210938
214045.04067230224609
213085.25424194335938
212137.93143844604492
211204.30131721496582
210287.39803123474121
209389.77220153808594
208512.16013336181641
207653.72878074645996
206813.4489688873291
205991.1045093536377
205186.93532180786133
204400.59725570678711
203630.58496856689453
202874.64756393432617
202130.7515926361084
201397.82112693786621
200675.70946884155273
199964.16742515563965
199261.33672904968262
198562.78602600097656
197862.23967933654785
197153.7668285369873
196433.80905723571777
195701.18938636779785
194955.33506393432617
194194.72733497619629
193417.40335464477539
192622.87216377258301
191813.12851333618164
190991.39607810974121
190159.45053291320801
189315.87704849243164
188456.71374130249023
187578.09776306152344
186678.84518432617188
185761.16883659362793
184829.24751091003418
183887.36699676513672
182939.60828399658203
181991.21835327148438
181049.57097244262695
180122.63961791992188
179215.27034378051758
178326.27768325805664
177449.22861480712891
176576.65837287902832
175704.74522972106934
174835.09556770324707
173973.02688026428223
173124.3270149230957
172293.01541900634766
171481.1757640838623
170690.0307674407959
169920.81177139282227
169174.44786262512207
168450.72885704040527
167748.31556701660156
167066.0603141784668
166404.7506217956543
165767.81394958496094
165160.22723770141602
164586.61112785339355
164050.12838172912598
163552.91427230834961
163097.19148445129395
162685.63835906982422
162320.23491096496582
162000.32489395141602
161721.43350601196289
1032332.0938606262207
1008823.9128932952881
997756.38619995117188
988857.33687400817871
981269.64344024658203
974722.192626953125
969084.64945793151855
964104.23740768432617