/*--------------------------------*- C++ -*----------------------------------*\
  =========                 |
  \\      /  F ield         | OpenFOAM: The Open Source CFD Toolbox
   \\    /   O peration     | Website:  https://openfoam.org
    \\  /    A nd           | Version:  12
     \\/     M anipulation  |
\*---------------------------------------------------------------------------*/
FoamFile
{
    format      ascii;
    class       volScalarField;
    location    "0.0056";
    object      rho_0;
}
// * * * * * * * * * * * * * * * * * * * * * * * * * * * * * * * * * * * * * //

dimensions      [1 -3 0 0 0 0 0];

internalField   nonuniform List<scalar> 
75962
(
1.1438418632363127614
1.1464173287141872226
1.146070311382630269
1.1462153963352506025
1.1472669825443821967
1.1471376224964209278
1.1467768186781646111
1.1463940934042196051
1.1458245680523080345
1.1453265427113088482
1.1451809683937885787
1.1452581060142792424
1.1453389383361387566
1.1455910321670061958
1.1460622596011875718
1.146309423860678578
1.1459611428814071576
1.1455033921638169137
1.1457485804318230382
1.1465416690038243708
1.1469165792655620084
1.1464954386701804445
1.1456119246435785275
1.1447207799228584779
1.1441217035146169501
1.1439243265399581251
1.1440390055804467995
1.1441482984765565245
1.1440007408511425613
1.1435848060222790767
1.1429118708320553655
1.1420404800590260308
1.1414149969825588826
1.1415086982643103397
1.1421646346806750838
1.1428042175633059685
1.1430671413224395838
1.1429946729392885807
1.1427813925710488263
1.1424640201802760409
1.1420451684953085714
1.1415951373976314098
1.1412411250735639001
1.1411072830040560611
1.1411795678739231619
1.1413107733200391625
1.1413439403158347485
1.1411880688890263524
1.1408055963456391613
1.1404040452814141471
1.1403415318877330176
1.140781993997767918
1.1415213566924229394
1.1422283258806336104
1.1426588885375577043
1.1426809967974553839
1.1423646675880458901
1.1420303397092981257
1.1419763201479420367
1.1422683753169828869
1.1427956900778877269
1.1433641001709706764
1.1436180613730162481
1.1433009396491824461
1.1426056115712495131
1.1420483553300997404
1.1418872896848824006
1.1420284983651236566
1.1423065834062864354
1.142713008505814587
1.1431607599890771798
1.143475818128805388
1.1435811856498665495
1.1435788355868281574
1.1436191267868276444
1.1436996877663165861
1.143726171703115746
1.1436525558679757619
1.1435128611768039519
1.143379003807598604
1.143337611980747015
1.1434667665111060142
1.1437644671517313011
1.1440799708418922798
1.1441833405400343437
1.1439869822552368728
1.1436413032543597534
1.1434164644916855469
1.1434989667398511859
1.1438847525105899638
1.1444194715067592671
1.1449115693762483836
1.1452204694745402591
1.1452816818055016057
1.1451076148187093739
1.1447722670613253992
1.1443714471521175824
1.143978888659274995
1.1436317095262074073
1.1433681967088706877
1.1432566767069780589
1.1433914105452005483
1.1437841135785256075
1.1443814111640659981
1.1450787129429125244
1.1457217947918234557
1.1461685855671548406
1.1463223755103242318
1.1461670534268342259
1.1457638707783588394
1.1452231003524631081
1.144634184308929159
1.1440838769527610363
1.1436621616655049394
1.1434513014606610959
1.1435219136432219766
1.1438845757471409748
1.1444361793930095672
1.1449640516807724211
1.1452136588851022925
1.145051532251917914
1.1445365981333153194
1.1438753537642207814
1.1432897558398358306
1.1429087307387459926
1.1427431660964482152
1.1427311015593235588
1.1428269152562247069
1.1430485016964357925
1.1434528939258985503
1.1440598951072007416
1.1448048378258077751
1.1455654442830371931
1.1462403460351908713
1.146806129738757285
1.1473134332938172975
1.1478253387349937054
1.1483572535320945018
1.1488591773611016578
1.1492606175487665165
1.1495386879575777428
1.1497369915783532957
1.1499255125558907054
1.150143025730184787
1.1503621025521830745
1.1505215041143497245
1.1505970019311233532
1.1506256318871683764
1.1506681580772040174
1.1507460669239457651
1.1508215932512237956
1.1508319774997741725
1.1507418244208540425
1.1505684730134166927
1.1503659991850549993
1.150190120697523577
1.1500737551013875404
1.1500198896771924861
1.1500148531199421154
1.1500334538143544005
1.1500439891079159427
1.150027707408814992
1.149974708948189539
1.1498937334879122396
1.1498168868325264746
1.1497803583170482788
1.1497992977924262892
1.1498615099387736738
1.1499401205453547714
1.1500120178796955361
1.1500731451244421422
1.1501495302339217464
1.1502786311343073944
1.1504754207662586385
1.1507217923531842807
1.1509621597122854375
1.1511126802515294631
1.1511020262080311483
1.1509180340391962361
1.150617388623449644
1.1502934950938010772
1.1500232380148514011
1.1498329385970003091
1.1497025257779138752
1.1496019457469623948
1.1495297418231384956
1.1495191003002660501
1.1496093667859108578
1.1494145948638523347
1.149469746215414423
1.1495406326239450134
1.1496109452055611744
1.1496479800756678191
1.1496183113772646678
1.149508828348016154
1.1493361279939773301
1.1491388665296919935
1.1489586809464544803
1.1488225998058825272
1.1487353527791919205
1.1486844872421624331
1.148652354620175231
1.148628272341411849
1.1486115287115321593
1.1486061805697886928
1.1486143464784412949
1.1486310921566149634
1.14864322630321114
1.148633761042124668
1.1485899490450179883
1.1485083798733526361
1.1483973372843758742
1.1482752278906613874
1.148164887382176369
1.1480842179277206405
1.1480362312332546004
1.1480040679001679571
1.1479546630496944015
1.1478521127671708069
1.147675775745113036
1.147434690223447129
1.1471687230184481887
1.1469334016725321046
1.146776780010558161
1.1467198229564856682
1.1467495745657947381
1.146829380791350772
1.1469197570748816961
1.1469980487485729181
1.1470637098080145311
1.1471282213688351881
1.1471990318641229756
1.1472691114960937853
1.1473189333873781148
1.1473287497366493337
1.1472932287698274223
1.1472277542625870517
1.1471620224746819083
1.1471251149887480292
1.147131536628995141
1.1471746401047422381
1.1472313061213408325
1.1472740732910802208
1.1472834683655919186
1.1472532953572953662
1.1471882823334873525
1.1470970236869093561
1.1469870987240482485
1.1468645969687010222
1.1467373771047097986
1.1466170963489399348
1.1465177270755351202
1.1464520124600401374
1.1464280745368022885
1.1464482185091080524
1.1465091770090172218
1.1466033261286530109
1.1467205382699525718
1.1468493350972017719
1.146978854044388596
1.1471005123055655339
1.1472095465880665088
1.1473046879112978047
1.147386246310549085
1.1474538614814293602
1.1475046023289556807
1.1475333166196886037
1.147535448939642988
1.147510629035342733
1.1474645319433829371
1.1474092380556246695
1.1473596334448337153
1.1473289319877144621
1.1473236492853595703
1.1473395096451788344
1.1473615935462730953
1.1473670971433544974
1.1473328333457646355
1.1472439115874564219
1.1471016678038932213
1.1469253281857492155
1.1467483877691555527
1.1466065294271936548
1.1465247926058628192
1.1465090355551668111
1.1465438118792679045
1.146598965737268605
1.146643172431125457
1.1466572878172307526
1.1466401210352128448
1.1466055874963987371
1.1465731426758725142
1.1465568704975572789
1.1465584720109842642
1.1465691410717921972
1.1465777982187295159
1.1465780089658943464
1.1465736037272686865
1.1465749548294723592
1.1465917531428233556
1.1466237340388987231
1.1466602329995176923
1.1466833832370799673
1.1466789944964850267
1.1466446110553780713
1.1465928672585905534
1.1465477774665824295
1.14653634747295885
1.1465782453329789181
1.1466772410539194382
1.1468183503812408031
1.1469737728561149037
1.1471134390720978402
1.1472152749857713605
1.1472699957349745681
1.1472821697169335309
1.1472655420970419016
1.1472346494788008275
1.1471992791353122776
1.1471638962920485127
1.1471280295466073085
1.147086271464364593
1.1470315191745981132
1.1469591523802848965
1.1468682805595236118
1.1467598484788343871
1.1466350648767524856
1.1464953252290350783
1.1463432284856058807
1.1461845324741026797
1.1460290580327650023
1.145889489234473313
1.1457787283191671612
1.1457065087122935143
1.1456774239627482981
1.1456902287397445761
1.1457389856175670406
1.1458147027593266198
1.1459064380813841488
1.1460016275794688845
1.1460872082989694842
1.1461514417953473366
1.1461863367272810965
1.1461897338367352805
1.1461670150931477785
1.1461301429921086914
1.1460951727264345745
1.1460784419392242572
1.1460921923419344903
1.1461411060418240648
1.146220487286315759
1.1463174927898391875
1.146414806308023282
1.1464954291225770699
1.1465475230492094827
1.1465670310103088791
1.1465591709809928034
1.1465366194519934773
1.1465161632177220952
1.1465144506302116234
1.1465445137587224611
1.1466127713613849526
1.1467183931848190515
1.1468551999077165604
1.1470136606239504928
1.1471838197783401636
1.147356824374841322
1.1475257901633524327
1.1476865467508210461
1.1478364351151988387
1.1479729329537964322
1.1480916868448547419
1.1481871210365892644
1.1482547165937850853
1.1482935722348739382
1.148307736609413654
1.148305417345679702
1.1482976074607753603
1.1482956786929217063
1.148307369293207314
1.1483336971128801363
1.148368025934179304
1.1483992309266914944
1.1484153993773438263
1.1484085386463955825
1.1483768834058547537
1.1483257973292124721
1.1482656701272244693
1.1482087783609153941
1.1481648054497324285
1.1481394343090605137
1.1481342076574392319
1.148148717177967848
1.1481818810777464357
1.1482337451523674243
1.1483058005949993152
1.1483994607728795767
1.148514293834870692
1.148645418327825185
1.1487816766133829294
1.1489072257840089453
1.1490045286556220816
1.1490582447189781057
1.1490593609410526543
1.1490092635220097161
1.1489202514187177862
1.148812781788526749
1.1487115345255547449
1.1486401217364043958
1.1486161219327044591
1.1486482331364937792
1.1487334994138220789
1.1488599296284494056
1.1490087372562949319
1.1491590288675361808
1.1492918728897258962
1.1493945196614476778
1.1494604939960957335
1.1494903665881179844
1.1494883541790568149
1.1494597341984758021
1.1494090157538878749
1.1493388132985928873
1.1492499133730949001
1.1491439552555016146
1.1490239294693231908
1.148896594514045244
1.1487696008097247891
1.1486554219812672439
1.14856473950672755
1.14850564126210819
1.148481817767823987
1.1484912907330833143
1.1485292858942326433
1.1485862445966967815
1.1486525222444519123
1.1487224004009020106
1.1487920319072804087
1.1488594848460571551
1.1489249278018363043
1.1489884287202261071
1.1490493001200923207
1.1475779825910259468
1.146630064764543766
1.145539466119386951
1.1457964514874721118
1.1464716644147652236
1.1475069792425378612
1.1475547259711547099
1.146765914239369577
1.1459098806271370563
1.1451406000971888766
1.1444860157900753617
1.1442512057254576874
1.1445226988946559654
1.1450368933441859021
1.1453023194257834216
1.145419991571033469
1.1455400106800623927
1.145566893126539032
1.1457216898543036709
1.1462794703601459911
1.1467728314695437852
1.1464622512374436081
1.1453724795173172435
1.1442476728191701696
1.1436706987948828118
1.1436703084910275763
1.1439261648231875412
1.1439584930450943379
1.1435680808228037009
1.1429130239182345719
1.1421941256745660187
1.1415310510344829353
1.1411577552587530704
1.1412806644018722579
1.1418077277906346634
1.1424429549183439114
1.1429101467528146596
1.1430785057940318072
1.1429292592269231221
1.1425574572374621596
1.1420202141221305059
1.1414634996705150805
1.1410769999826204657
1.1409653446076746253
1.1410695384689031329
1.1411951621438101157
1.1411941318582368154
1.141025846869610838
1.1407602278810333729
1.1405723249465220537
1.1406571521579405015
1.141081662011653064
1.1417308397360981242
1.1424262667525111326
1.142943846057767443
1.14301570895940241
1.1426179334177992697
1.1421414580965154606
1.1420440665936337776
1.1424154913330908379
1.1430383531471870473
1.1435751685348043427
1.1437339203970831036
1.1433874969805146726
1.1427491071482029916
1.1422326494685637321
1.142076301276051753
1.1422272907281150189
1.1425562783029039604
1.1429949860405184126
1.1434484575233936354
1.1437871801388377335
1.143931960768623135
1.1439440616320288857
1.1439208217830667547
1.1438927910951701694
1.143861977616829062
1.1438442175347593999
1.1438287732305931765
1.1437794992186283149
1.1437236143174978054
1.1437671843143317751
1.1439789325328033609
1.144241397894980361
1.1443186677404411089
1.1440929599518780968
1.1437090816317070363
1.1434500509536602575
1.1435483450600150146
1.1439932450725629476
1.1445899127749836754
1.1451108658560424924
1.1454081530796189625
1.1454278900962167054
1.1452078006632928631
1.1448218478298219924
1.1443869569248534823
1.1440303754975269523
1.1438113036762111996
1.1437181053345175652
1.1436980620141270482
1.1437416864839875519
1.1439248046589880481
1.1443323784561856282
1.1449482542710927024
1.145620730271128096
1.1461217276573900659
1.1462731276623780996
1.1460588298107503569
1.145593638841948092
1.1450344715072631185
1.1444845091275526183
1.1439972000225309134
1.143633633840630548
1.1434786759381714294
1.1435988456528465296
1.1439844056395513938
1.1445186595524181605
1.1449771543890945313
1.1451281217459721162
1.144853693691512575
1.1442274818433542105
1.1434764181903596114
1.1428513226381755707
1.1425064614565034748
1.1424289421917612763
1.1425030708570544924
1.1426262418840440471
1.1428057099245632067
1.1431302835177805655
1.1436871439643863102
1.1444436640467072763
1.1452645285753870752
1.1460050335100144814
1.1466066194348469853
1.1471190213729312024
1.14763178181452008
1.148179574181154905
1.1487041751960620495
1.1491139179156903971
1.1493790424358532043
1.1495576110151297655
1.1497391112689552273
1.1499680530611988694
1.1502121245334582245
1.1504044984898122994
1.150525510949260255
1.1506179461494092653
1.1507320489780255013
1.1508653190421129775
1.15095878510287708
1.1509545617288463593
1.1508397590789773979
1.1506502155308124813
1.1504475480529585685
1.1502813186386227073
1.1501719912838297422
1.1501134095478411368
1.1500830377316191289
1.1500638120055906022
1.1500338206675349007
1.1499880626430158959
1.1499332392165966255
1.149886281548867295
1.1498689250589981814
1.1498905452575141073
1.149943234407910797
1.1500078303964968995
1.1500681138263715297
1.1501236678719395368
1.1501933465693934266
1.1503020749796777356
1.1504717280335707841
1.1507104400837602221
1.1509880507004293104
1.1512338166358675462
1.1513626689226512667
1.1513181177795575039
1.1511089717384204167
1.1508100091791662045
1.1505156381907499785
1.1502865039918508394
1.1501302740878756037
1.1500204583517712464
1.1499341417585322578
1.1498795852139773732
1.1498911610944997364
1.1499978610872685358
1.150194915800960116
1.1494443127574327512
1.1494629230784592089
1.1494668606733877692
1.1494705751008809091
1.1494769918006133569
1.1494685061981100294
1.149415085340935061
1.1492955307441405921
1.1491156141340839181
1.1489092520008512555
1.1487216013489913724
1.1485868126843543635
1.1485146821833396302
1.1484912793719697088
1.1484919889385762914
1.1484958353296641498
1.1484942318414101958
1.1484892620174234068
1.148485873945029434
1.1484845382341450915
1.1484796010232800612
1.1484608292039952815
1.1484176609796161728
1.1483448943660845565
1.1482467843588304302
1.1481375448682495932
1.1480360138710492546
1.1479577351263083873
1.1479055465725396257
1.1478635019555747387
1.147800576319826682
1.1476843258783784307
1.1474992080618540147
1.1472586359101224485
1.1470049987904729072
1.1467934241833035447
1.1466673416371493399
1.1466391371062381044
1.14668585853705296
1.1467630416945238103
1.1468280378133210995
1.1468599949831732587
1.1468655302909487315
1.1468682386096720194
1.1468901973791836291
1.1469375633962715089
1.1469979366871638771
1.1470493813134436945
1.1470747340437619233
1.147071561031576703
1.1470531543959303633
1.1470403478021924393
1.1470495461818377425
1.1470847017392240552
1.1471359766251267853
1.1471850609781526487
1.1472135041739548456
1.1472082554458560288
1.1471630935351244673
1.1470774836021111476
1.146956103140384764
1.1468099323334863815
1.1466569638772874384
1.1465198599571915228
1.14642061383343008
1.1463746133812320327
1.1463867804618976809
1.1464523613756172349
1.146559725136186092
1.1466942725544113646
1.1468413452261194685
1.1469880210244645102
1.1471236944503246935
1.1472406508342907205
1.1473354927422978466
1.147409263440069882
1.1474666066171130829
1.1475116264152640522
1.1475455856195093673
1.1475659504370585573
1.1475687684232058761
1.1475505969890849034
1.1475103590851296609
1.147450977932493954
1.1473811937051636711
1.1473137767963663691
1.1472622229700706331
1.147234426904028215
1.1472285991259005833
1.1472317700987273437
1.1472234513520995769
1.1471844646278059887
1.1471057060603429001
1.146993363707646818
1.1468683542333331093
1.1467587817890270152
1.1466880989797803014
1.146665310972598828
1.1466819292074263981
1.1467161478726384249
1.1467439302861641703
1.1467505170662777303
1.1467356777053046013
1.1467107209289304492
1.1466906912463743495
1.1466850278561522281
1.1466921839035051356
1.1467030118588790177
1.1467082476894046028
1.1467066516648050101
1.1467057648154979077
1.1467172550619346705
1.1467481241676742432
1.1467927519223901633
1.1468332951932338482
1.1468469477803919787
1.1468191932804159272
1.1467526307108864003
1.1466693037868029847
1.1466019307466803756
1.1465821563552145435
1.1466277713017964945
1.1467361206573933874
1.1468843804055743885
1.1470379991991750401
1.1471631669286281863
1.1472392096118866345
1.1472635113202869217
1.14724749494650613
1.1472107958413741979
1.1471727750340960927
1.1471441884385840115
1.1471253821054738786
1.147110289476590772
1.1470905091930341246
1.1470573529571539417
1.1470040619959416262
1.146928343350603674
1.1468319090198615395
1.1467182022699513588
1.146591077161494443
1.1464542480457531326
1.1463117438277452553
1.1461688255136524006
1.1460330832763774289
1.1459142629551541948
1.1458225507565367174
1.1457663849818100488
1.1457510119351452804
1.1457765929854177855
1.1458380241064023419
1.1459250443336159719
1.1460233990567378903
1.1461168800360026498
1.1461902986029119944
1.1462334046810027655
1.1462439487418882855
1.1462291651864409125
1.1462037642434668161
1.1461851514792293916
1.1461880445065604217
1.1462204887188247593
1.1462817372682907457
1.1463625041275657956
1.1464473347924908353
1.1465192054431987412
1.1465643068796957937
1.1465753938452025729
1.1465535741878782883
1.1465082876273768875
1.1464556254237521227
1.1464147048290469488
1.1464035823294793648
1.1464350664434055371
1.1465142376674180014
1.1466374716839555781
1.1467946638633346179
1.1469728111515111735
1.1471588499606992784
1.1473423665583815101
1.1475164074553820814
1.1476773628727476861
1.1478235593379069179
1.1479531620452441132
1.1480623971057442034
1.1481455017597268498
1.1481978662937806224
1.1482191611506615825
1.1482155456097518087
1.1481980714132775656
1.1481800702150888327
1.1481741539812950759
1.1481885149137518454
1.1482238471287302684
1.1482726182196960618
1.1483221011005342316
1.1483589450796589659
1.1483740743431418707
1.148364961011191232
1.1483359222721469806
1.1482960601060276939
1.1482561857083326551
1.1482250361016834717
1.1482068487360090892
1.1482015669038623251
1.1482070768302756747
1.148221328529968277
1.1482453937391807752
1.1482827052642905485
1.1483376819377058009
1.1484140752769083083
1.148511121539946167
1.1486224019708073385
1.1487355854208070038
1.1488340563937868843
1.1489021649230721778
1.1489293227970052147
1.1489132795936765064
1.1488616137156051344
1.1487904524975771636
1.1487214845014273035
1.148676302955622841
1.1486721836032054433
1.1487179630566903832
1.1488125748206714505
1.1489459749842252378
1.1491015585730677273
1.1492596446403231525
1.1494013078928515537
1.1495128169971422505
1.1495869750836698042
1.1496224712346072572
1.1496226343492679245
1.1495923679831634434
1.1495375045572455708
1.149462092843395622
1.1493700087132903143
1.1492644116650896358
1.1491503124276492009
1.1490339382171521621
1.1489231516777338449
1.1488270756915548443
1.1487532888881266668
1.1487073744849500834
1.148688899845373701
1.1486939473068626949
1.1487172417517075296
1.1487521722429940851
1.148793530584417466
1.148839504419999491
1.148891416061116777
1.1489516961153636299
1.1490212765019445218
1.1490984128578916046
1.1491784652362639907
1.1426005359626774105
1.1451556343043685082
1.1473557085362968699
1.1481276773363846555
1.1480421323096789976
1.1463792029061159461
1.1447219108892972006
1.144651559193104351
1.1453404707602341528
1.1453058089309544609
1.1444060422097062091
1.1437714701051902022
1.1440364656092050222
1.1445401941640207522
1.144617539116402849
1.1445927361692327384
1.1447754226468946914
1.1450138276920407421
1.1452959103806814589
1.145831081363796411
1.1462790207764785855
1.1459458134302729082
1.1448080662142470221
1.1436510603348279957
1.1431360428565182641
1.1432963143673220419
1.143632860967393805
1.1436162629647363964
1.1431937427622693715
1.1426600913500415402
1.1421481408873290775
1.1416542827904736512
1.1412867160021453738
1.1412774146760200633
1.1417553007626739525
1.1425172896199951023
1.1431374855752285402
1.143301015366150919
1.1429769280940753617
1.1423378246741004993
1.1416352500240694035
1.1411119872259949393
1.1409391704811067125
1.1410707133637425503
1.141301774060581975
1.1414095972725499806
1.1413376275025159945
1.1411806793578584962
1.1410741985276813271
1.1410470198601809777
1.1411404890874803364
1.1414227000708794257
1.141939117806609616
1.1426197184459649936
1.1431631304229605828
1.143178184342440673
1.1426516167690297099
1.1421016406303632351
1.1420501190257072999
1.1425454751535919495
1.1432252239460058973
1.1436872710671464048
1.1437258682336188809
1.1433560058850174013
1.1428219206185890044
1.1424498929643032152
1.1424298892369861846
1.1427048155578789501
1.1430947460675966454
1.1434855289580945215
1.1438199359088119245
1.1440451799469562033
1.1441362756233253162
1.1441306185950939067
1.1440692312557159127
1.1440329435845564277
1.144057012621724434
1.1441398644443869781
1.1441867315246021519
1.144085416220647522
1.143900476588853854
1.1438358472662331078
1.1439935185684602104
1.1442445923421813436
1.1443273166956200448
1.1441176339430103592
1.1437634298652972209
1.1435836535458845376
1.143784731983519487
1.1443210920279942577
1.1449263132469800208
1.1453434726628974882
1.1454778401244198882
1.145381536567876779
1.1451085018583619934
1.1447210539941492513
1.1443229226748117267
1.1440521136784052025
1.1439976308196999621
1.1440706924766756991
1.144118670088229317
1.1440617823783632012
1.1440663776591466494
1.1443422345355200864
1.1449422687386241471
1.1456616677285529349
1.1461501059963123961
1.1461835803497042452
1.1457985902358818198
1.1452137383692408967
1.1446344698730086531
1.144163637061572425
1.1438184937203867975
1.1436102726219905534
1.1435930759157897363
1.1437909864985931208
1.1441590228714466626
1.1445657959716741825
1.1448360331861457961
1.1448162222763789142
1.1444393343827394816
1.1437768604371596481
1.1430293054818916332
1.1424345274504110748
1.1421538223773195497
1.1421771549188055594
1.1423566554251731731
1.1425527624353986056
1.1427451744602470374
1.143029639214407478
1.1435155395562948133
1.1442116809980196201
1.1450096335141166648
1.1457685694690067368
1.1464271709514579634
1.1470316624878018619
1.1476505012352182789
1.1482801870067655958
1.1488363092718010261
1.1492275130506865999
1.1494399641693082703
1.1495581330140836052
1.1496874443513227515
1.1498679474547517376
1.150065576763759978
1.1502300485927150486
1.1503616272231038664
1.1505057660114808016
1.1506853343855683036
1.1508691626710194633
1.1509893231920538259
1.1509958500642862855
1.1508962631852361902
1.150739921654347464
1.1505803321616039359
1.1504528285574580071
1.1503701277536928504
1.1503256437014928171
1.1502963865980790903
1.1502487665166765129
1.1501727860063237774
1.1500727986145100612
1.1499724980863335055
1.1499084268614576665
1.1499045069684903364
1.1499557455935454087
1.1500393323714657168
1.1501274118586872763
1.1502061744293257117
1.1502851860601213119
1.1503855532251892058
1.1505301050557474873
1.1507321042545428647
1.1509803586587823432
1.1512331582203545466
1.1514264954821833431
1.1514992810876509832
1.1514272805390357579
1.1512404551160977384
1.1510073190204612725
1.150793730743119303
1.1506287864842399404
1.1505041791766807968
1.1504010700464410988
1.1503181467130996207
1.1502778956733339388
1.1503095288167866084
1.1504236375365741729
1.1506000652975241216
1.1494668886694241472
1.1494477529223969814
1.1493826947159591079
1.1493012529977832958
1.1492293945358231788
1.1491705743687874453
1.1491036058525763153
1.1490003995801019165
1.1488497796485517277
1.1486682978895152996
1.1484938159199864494
1.1483650485828356125
1.1483021961093489161
1.1482997721708776417
1.1483333664086565751
1.148374470279974302
1.1484035442716478137
1.1484136492378145267
1.1484065623414556612
1.1483865831262953794
1.1483560180079062096
1.1483136127813271532
1.1482559804463523534
1.1481809358079113625
1.1480902052498269672
1.1479911720360360672
1.1478970894048554641
1.1478202919411681915
1.1477639530488115138
1.1477146859308910987
1.1476449677992344167
1.1475268799828459709
1.147349657053141847
1.1471300204681020851
1.1469088936941138623
1.1467349815792318157
1.1466416730397095414
1.1466303780274533786
1.146670633082937707
1.1467170015353636003
1.1467329555284826448
1.1467070868925228755
1.1466556661763480651
1.1466111580582063478
1.146603714267894869
1.1466455716934982334
1.1467266734205519008
1.1468212699461270976
1.1469015343205575252
1.1469507786657446857
1.1469691584722865318
1.1469712815781683002
1.146976989526524715
1.1470010517919051463
1.1470471063315474947
1.1471065479938227227
1.1471617585339144441
1.1471916830710335855
1.1471783229520813308
1.1471116288882388101
1.1469935525134409282
1.1468395041641292753
1.1466759979442322503
1.1465346626516090822
1.1464437160988540931
1.1464200892093490136
1.1464657752841853622
1.1465693082484167409
1.1467108469578912722
1.1468692755661478166
1.1470264540275882936
1.1471699893215523414
1.1472916475916579149
1.1473875332419301021
1.1474574627252722703
1.1475041979862010688
1.1475333147351722829
1.1475517834448623056
1.1475653354701194075
1.1475763387790451908
1.1475822818010987802
1.1475758314996269416
1.1475476051723292326
1.147490879334627234
1.1474070739478225978
1.1473083200861882158
1.1472142994740441857
1.1471456197110032615
1.147114933414822957
1.1471198624065905847
1.1471436553156806326
1.147162126633283652
1.1471542246262644849
1.1471117659573946135
1.1470427748218143815
1.1469665186214512698
1.1469039093936461704
1.1468683557231595938
1.1468596484286477377
1.1468659884686678296
1.1468722942020179723
1.1468685118199217765
1.1468549726786043674
1.146839638442145759
1.1468323261096242671
1.1468368511725381964
1.1468492823813800641
1.1468598415079931385
1.1468616036478527231
1.1468569680016926782
1.1468566523348406871
1.1468729285732859324
1.1469100421574616178
1.1469578317120781019
1.1469950066673260114
1.1469972109593249421
1.146950734477172329
1.146862485278654642
1.1467595416586005008
1.1466789639579912929
1.1466534910485743914
1.1466981126942648039
1.1468043633693856265
1.1469438772616942224
1.147079101290787051
1.1471774425116072482
1.1472213049246218208
1.1472140163488435682
1.1471747041720847804
1.1471279231769568874
1.1470944148079145197
1.1470842012323989589
1.1470944028451006691
1.1471121344225958527
1.1471221121553520916
1.1471124927975340224
1.1470772611187833867
1.1470165021923828252
1.146934446793369089
1.1468367318919359121
1.1467284885894077906
1.1466134201316451335
1.1464936261551856855
1.1463702537353630539
1.1462452340470317136
1.1461236298261616717
1.146014889019471017
1.1459309902169168005
1.1458832565568042305
1.1458786989760583186
1.1459169985361807864
1.1459901245303141248
1.1460837363966260849
1.1461801767489412374
1.1462625208878978178
1.1463190207360054451
1.1463462893415663491
1.1463503911583179384
1.1463449097271787291
1.1463457663377010221
1.1463653432238847252
1.1464082946922489192
1.146470587428021215
1.1465408148846680803
1.1466039509041250355
1.1466454238445074054
1.1466548735745580867
1.1466286725584446948
1.1465709380129498474
1.146493283713057254
1.1464131411274141037
1.1463504821261050193
1.1463240024185237242
1.1463470000324920139
1.1464247928193060933
1.1465534658462022133
1.1467208415848981762
1.146910104778761097
1.1471046080898732455
1.1472913769980848109
1.1474627517924600451
1.1476157965085269641
1.1477498876823337692
1.1478645343331521644
1.1479583530280319525
1.1480280795849722164
1.1480702386328587306
1.1480846028199409581
1.1480768274701764753
1.1480581716182938212
1.1480419882494812267
1.1480400298821331617
1.1480594914615254165
1.148101261574787868
1.1481595219597140467
1.1482234444199872492
1.1482811700450588077
1.1483232170345263334
1.1483458232995238379
1.1483506891160977226
1.1483435223403639647
1.1483310914217674803
1.1483184761408375962
1.148307652501294962
1.1482979387050007425
1.1482874396630882163
1.1482754849129965802
1.1482646238785150228
1.1482609409877992945
1.1482722483332876706
1.148305416875927687
1.1483634685459476188
1.1484438844043503014
1.1485383218359122015
1.1486337547406859638
1.1487156430320384359
1.1487719858351759239
1.1487972344754664444
1.1487936780682901361
1.148771419041497488
1.1487467848364512069
1.1487370818001476636
1.1487565604514471396
1.1488137021283442163
1.1489086321953483338
1.1490336533351410697
1.1491757647602940384
1.1493188502214608526
1.1494481866474923759
1.1495521061330868928
1.1496240960459793712
1.1496621126314423567
1.1496682536770874705
1.1496458164218423814
1.1495997726254125748
1.1495347803427815592
1.1494552263159316663
1.1493655454118809622
1.1492711303303861925
1.1491788598043004566
1.1490951413798244918
1.1490260952751734091
1.148977146732667487
1.1489489629692251071
1.1489390710634805881
1.1489417308444642707
1.1489495727070155873
1.1489596553504037857
1.148971900072037311
1.1489881246744839682
1.1490152277170722073
1.1490608073250487831
1.1491268483265424383
1.1492101352023686989
1.1493034342278818372
1.1493948007715433235
1.1455521651349613865
1.1440746711901086385
1.1438633457665565718
1.1454088677382943118
1.1471929176595425659
1.1466260114468382891
1.1449113782386672877
1.144333688363268875
1.1449775106837556393