/*--------------------------------*- C++ -*----------------------------------*\
  =========                 |
  \\      /  F ield         | OpenFOAM: The Open Source CFD Toolbox
   \\    /   O peration     | Website:  https://openfoam.org
    \\  /    A nd           | Version:  12
     \\/     M anipulation  |
\*---------------------------------------------------------------------------*/
FoamFile
{
    format      ascii;
    class       volScalarField;
    location    "0.00514";
    object      nut;
}
// * * * * * * * * * * * * * * * * * * * * * * * * * * * * * * * * * * * * * //

dimensions      [0 2 -1 0 0 0 0];

internalField   nonuniform List<scalar> 
106891
(
6.3848365977681326031e-06
6.3784111487549113249e-06
6.3707106790397319168e-06
6.3644157666746560418e-06
6.3568411882952856107e-06
6.3507831095410828103e-06
6.3432126999268379603e-06
6.3372572666724400468e-06
6.3296642708748172422e-06
6.3236916906553183071e-06
6.3151742175849991492e-06
9.7238990415159095524e-06
9.7116987039223093709e-06
9.6923323741475051282e-06
9.6724650380607328466e-06
9.6527461338212707409e-06
9.6345346270056820794e-06
9.617358601842164719e-06
9.6022248316778678877e-06
9.5878418651675978104e-06
9.57484583922243101e-06
9.5620562411275719276e-06
9.550243646530344894e-06
9.5383047996319797029e-06
9.5271818705558726872e-06
9.5156996548286930138e-06
9.5049033003526494067e-06
9.4937474683731756916e-06
9.4832253454727528425e-06
9.4723547665934860866e-06
9.4620194065856814438e-06
9.4513165503300003727e-06
9.4409920104139614477e-06
9.4302343426637259111e-06
9.4201075084598791189e-06
9.4096131495049551222e-06
9.3995312752047520177e-06
9.3890100318711512413e-06
9.379017912320809574e-06
9.3684145009622883329e-06
9.3580743382426055942e-06
9.3470537855614322932e-06
9.3363699281959249216e-06
9.325172651001688233e-06
9.3143983422094300015e-06
9.3029420051764184557e-06
9.2920038070280809188e-06
9.2805148836006372135e-06
9.2694840114631149027e-06
6.7872017970213923018e-06
6.7786411008233704491e-06
6.7714773693187197063e-06
6.7627152938488311533e-06
6.7554668589374543549e-06
6.7467366857436628598e-06
6.7396218768486829381e-06
6.7310227773824526858e-06
6.724038056416127275e-06
6.7155821918708371202e-06
6.7086942576071392988e-06
6.7003656492451377439e-06
6.693633670485610887e-06
6.6854305272326747258e-06
6.678937115458159036e-06
6.6706964544610895695e-06
6.6642884005345499337e-06
6.6560555739751079167e-06
6.6496559860259762235e-06
6.6403823863662445927e-06
1.0225417665836970607e-05
1.0203705380537119536e-05
1.0181984580455762655e-05
1.0161668405866926469e-05
1.0142020051060027155e-05
1.0124385206555072458e-05
1.0107739184444082076e-05
1.0093015390771590157e-05
1.0078780706667591624e-05
1.0065687310202821994e-05
1.0052532922111982511e-05
1.0040323011203710544e-05
1.0027817767308650035e-05
1.0016077962754833423e-05
1.0003997204399771469e-05
9.992600555044047671e-06
9.9808859667539632284e-06
9.9698014756436876356e-06
9.9584354908524861581e-06
9.9474972092728619074e-06
9.9360798483638127171e-06
9.9253080799284580671e-06
9.9141753663312166557e-06
9.903538757524072e-06
9.8923738753605630066e-06
9.8818451199699254279e-06
9.8708368204290879947e-06
9.8603428791539572023e-06
9.8491889564370095335e-06
9.8383541255430049074e-06
9.8269228606809664309e-06
9.8159485176102601674e-06
9.8041977382029915828e-06
9.7928942174786968208e-06
9.780929135594515638e-06
9.7694127370777092883e-06
7.1406071852892964732e-06
7.1313847225954602244e-06
7.1237159330939132595e-06
7.1142955989911633638e-06
7.1065485072763025139e-06
7.0971703671381927616e-06
7.0895858173036447591e-06
7.0803681811727681367e-06
7.0729074917425656616e-06
7.0637985216215367474e-06
7.0564538131278936847e-06
7.0474828609897232159e-06
7.0402716781425938962e-06
7.031388081775383694e-06
7.0244122842320304013e-06
7.0154849025401254601e-06
7.0085984698731007735e-06
6.9996863826409769609e-06
6.9928221941161468816e-06
6.9827572510138865962e-06
1.0787053515447053467e-05
1.0767333958523921176e-05
1.0741693127003051176e-05
1.0717713652675267235e-05
1.0694667962358221988e-05
1.0673763443450130076e-05
1.0654065450151859471e-05
1.0636606986580150313e-05
1.062007088782176948e-05
1.0605027150381673596e-05
1.059014821136158155e-05
1.0576423498687964795e-05
1.0562454899558473457e-05
1.0549364792800284703e-05
1.0535946992379272127e-05
1.0523382629016575903e-05
1.0510568312687009829e-05
1.0498506934681124076e-05
1.0486233031256667647e-05
1.0474536571147080534e-05
1.0462428348341836986e-05
1.0450961477184762759e-05
1.0438990062428315841e-05
1.0427448356802651778e-05
1.041535142204325079e-05
1.040391067206508283e-05
1.039207102457965675e-05
1.038086738489751977e-05
1.0369159868734297388e-05
1.0357866674949157583e-05
1.03459648371668485e-05
1.0334435719727530338e-05
1.0322002845863531104e-05
1.0309984441612244057e-05
1.0297341946260332165e-05
1.0285303041680610386e-05
7.5023695466687636532e-06
7.4942572357477077029e-06
7.4842120098239471723e-06
7.4760351563321835827e-06
7.4660385881834258023e-06
7.4579914209335304733e-06
7.4481210477388597516e-06
7.4401977358933354487e-06
7.430472970122028057e-06
7.4226211088933239383e-06
7.4129561573218607641e-06
7.4052277166479429455e-06
7.3956289850217496633e-06
7.3881151757794923717e-06
7.3784430156915009941e-06
7.3710467274056500246e-06
7.3614347914843046838e-06
7.3540963694842261696e-06
7.3432532008294994927e-06
1.1339762751925777708e-05
1.1312648290711067596e-05
1.1286360939828276172e-05
1.1262106187714600008e-05
1.12388054470091427e-05
1.121780139621378854e-05
1.1198098233118674644e-05
1.1180571134757215953e-05
1.1163785775401871729e-05
1.1148539660850270672e-05
1.1133222421862230727e-05
1.1118933835533231368e-05
1.1104366288189846805e-05
1.1090696252959424822e-05
1.1076780522460027666e-05
1.1063701618333112852e-05
1.1050565046405745051e-05
1.103826842961939833e-05
1.1025773296019952783e-05
1.1014025292124621179e-05
1.1001672631204351339e-05
1.0989673309664517309e-05
1.097687231516220971e-05
1.0964564043019873221e-05
1.0951702929056727107e-05
1.0939615526057998079e-05
1.0927270554469099644e-05
1.0915610786034747086e-05
1.0903351642545668998e-05
1.0891444406812754331e-05
1.0878532840755277913e-05
1.0865972535402875789e-05
1.0852607110057853017e-05
1.0839800485151711144e-05
7.9028532918914600792e-06
7.8923559676670994989e-06
7.8838565380170377671e-06
7.8732495590519334464e-06
7.864728276315773812e-06
7.8541712113989313205e-06
7.8457100859121284471e-06
7.8352412500750897776e-06
7.8268289344449306293e-06
7.8164068753253113515e-06
7.8080216370636622172e-06
7.7976508765302934481e-06
7.7893326087587126363e-06
7.778944249243210338e-06
7.7708386910315342455e-06
7.7603963571111388495e-06
7.7524699011530172165e-06
7.742153222976073441e-06
7.7343336456492699975e-06
7.722738667285095575e-06
1.1945031954668369623e-05
1.1916672132146169827e-05
1.1890191003270250702e-05
1.1864317433309020579e-05
1.1840395199799682338e-05
1.1817437444066996512e-05
1.1796787329841219291e-05
1.1777263642284957045e-05
1.1759790365871939245e-05
1.1742551283856872521e-05
1.1726578925402627988e-05
1.171040131241997104e-05
1.1695204892794258369e-05
1.1679811315524068636e-05
1.1665327296435245186e-05
1.1650753026397861511e-05
1.1637071121387195378e-05
1.1623404425963606518e-05
1.1610925175627246139e-05
1.1598123195159245092e-05
1.1585816711193901353e-05
1.157247942686705031e-05
1.1559408204623934137e-05
1.1545474096212875355e-05
1.1532208585546694976e-05
1.1518706245349845816e-05
1.150614764380355302e-05
1.1493182374837354048e-05
1.1480767226123287086e-05
1.1467317190010228116e-05
1.1454156116390759178e-05
1.1439971339085370816e-05
1.1426195727235268729e-05
8.3023691133953217056e-06
8.2935121055710650143e-06
8.2823650596233638243e-06
8.2735055386267620701e-06
8.2624068435304139606e-06
8.2535585411053449703e-06
8.2424699651376001457e-06
8.2335803268339397546e-06
8.2224712253591400224e-06
8.2135448743198008351e-06
8.2023933819314101795e-06
8.1934701446193052802e-06
8.1822859544122442343e-06
8.173601383233928069e-06
8.1623684474955553327e-06
8.1539084190102060297e-06
8.1428987494756030832e-06
8.1346210737204359393e-06
8.1223845657420823483e-06
1.2542396096435867695e-05
1.2515611601320762185e-05
1.2489224144263837336e-05
1.2464713481633814794e-05
1.2441166158917276382e-05
1.2419835360475592505e-05
1.2399567365074426172e-05
1.2381390792790272637e-05
1.2363423597431232116e-05
1.2346748631981572909e-05
1.2329822312014398429e-05
1.2314022533035359885e-05
1.229806089432193844e-05
1.2283061930504792614e-05
1.226788757753247544e-05
1.2253579744320522438e-05
1.2239263575079582528e-05
1.2226124887735467586e-05
1.2212586615533688371e-05
1.2199490662867069565e-05
1.2185254518349549757e-05
1.2171157804467844533e-05
1.2156141263489353627e-05
1.2141784315626572623e-05
1.2127249383230069186e-05
1.2113718052613441168e-05
1.2099788764454364644e-05
1.2086379521971603283e-05
1.2071902781183668313e-05
1.2057768300905495778e-05
1.2042691550847642776e-05
1.2028206444057553735e-05
8.733711998018525908e-06
8.724477450492375391e-06
8.712721234375605091e-06
8.7034594687607504771e-06
8.6917699123531234434e-06
8.6825383384001936704e-06
8.6708144867330480267e-06
8.6614846693055054836e-06
8.6496446906003001515e-06
8.6401460424557795573e-06
8.6281891387081856331e-06
8.6187112518961274068e-06
8.6067824597475060659e-06
8.5976021845926511069e-06
8.5856706295485316446e-06
8.5767184563249815657e-06
8.5650166759946442976e-06
8.5562798390667402232e-06
8.543548609269843586e-06
1.3200352773484707363e-05
1.3171247464357631294e-05
1.3143215717588768317e-05
1.3117669708687559104e-05
1.3093436215794110802e-05
1.3071655133798287381e-05
1.3050540448265172987e-05
1.3031306248182166158e-05
1.301219438689700056e-05
1.299440968995602358e-05
1.2976566867615093058e-05
1.2959935589175835177e-05
1.2943293983221140086e-05
1.2927496507799614807e-05
1.29114303344163225e-05
1.2896426775862550725e-05
1.2881129270383621951e-05
1.2866708492349518701e-05
1.2851368555397298969e-05
1.2836235276054906878e-05
1.2819883767229549263e-05
1.2803882204791518153e-05
1.2787489715463269454e-05
1.2772209376501915729e-05
1.2756669297818277968e-05
1.2741979944686918547e-05
1.2726470480139442481e-05
1.2711594926313779963e-05
1.2695869545092762628e-05
1.2680775474994593252e-05
9.1784495967691389435e-06
9.1659635943679882385e-06
9.1561989667883898454e-06
9.1438306735345948993e-06
9.1341433560516415569e-06
9.1217474683514958875e-06
9.1119692982680854782e-06
9.0994312233691927998e-06
9.0894663137350815047e-06
9.0768411139454416807e-06
9.0669768355025578873e-06
9.0544155167373506873e-06
9.0448120449076452039e-06
9.0322781878017646207e-06
9.0228882322844134644e-06
9.0105163813756696819e-06
9.001321156579111121e-06
8.9881155032574094855e-06
1.3871474875450658484e-05
1.384476244464525585e-05
1.3819048634940556589e-05
1.3795754058320329344e-05
1.3772939780304132025e-05
1.3752199569099183155e-05
1.3731675926445624335e-05
1.3712724613959279468e-05
1.3693736480340818159e-05
1.3676025863721191295e-05
1.3658168462282064615e-05
1.3641234016750685155e-05
1.3623994754716295687e-05
1.3607830555039832101e-05
1.3591059381548468364e-05
1.357519969770409203e-05
1.355854211559873907e-05
1.3542565815066014281e-05
1.3525437166291348479e-05
1.3508461532625805869e-05
1.3490609026104007578e-05
1.3473735089549939502e-05
1.3456462594694624065e-05
1.3440213742965399619e-05
1.3423260780931239362e-05
1.340724404578619453e-05
1.3390679627498507125e-05
1.3375118392181739254e-05
9.6649318526939879872e-06
9.6519469064876830053e-06
9.6416035794443811222e-06
9.628660376340211706e-06
9.6184853276946112019e-06
9.6056240507802272301e-06
9.5955228141969544649e-06
9.5826816498729203815e-06
9.5725287564669158568e-06
9.5596730612867152901e-06
9.5496513132794422208e-06
9.536774979196582669e-06
9.5269059374216564351e-06
9.5140213863038817067e-06
9.5043036899015318283e-06
9.4914741666475551865e-06
9.481914786790191814e-06
9.4686608639567250765e-06
1.4547624683162644856e-05
1.452289286511207364e-05
1.4499961651398329942e-05
1.4477408905937424159e-05
1.4456840737955042441e-05
1.4436746200077631494e-05
1.4418346820276917614e-05
1.4399913059765743215e-05
1.438245435830795976e-05
1.4364547168034814183e-05
1.4347326853041253623e-05
1.4329864977806294177e-05
1.4313322364378795731e-05
1.4296119181682474168e-05
1.4279579726282605747e-05
1.4262329378880369903e-05
1.4245832111303237115e-05
1.4228669939470310108e-05
1.4211897605888969477e-05
1.419433372233629995e-05
1.4177299872733452758e-05
1.4159491327915223446e-05
1.4142410549255139397e-05
1.4124807413780078756e-05
1.4108347528860384432e-05
1.4091583604224247026e-05
1.407595293080962938e-05
1.0135798085958870252e-05
1.0122025975217486426e-05
1.0109408994720213003e-05
1.0095772844107918066e-05
1.0083292615143593771e-05
1.0069856926114351733e-05
1.0057601014726992003e-05
1.0044312401978461229e-05
1.003211210443912297e-05
1.0018938541491317922e-05
1.0006543537422571709e-05
9.9934226522114273769e-06
9.9808853798001124304e-06
9.9676910208337611211e-06
9.9550485159936300992e-06
9.9417178534748325898e-06
9.9289809803922230222e-06
1.5039121688492637367e-05
1.5013633240936770166e-05
1.4990012532416824686e-05
1.4966900812315738934e-05
1.4945574834154082576e-05
1.4924914087007815566e-05
1.4906448105372067299e-05
1.488845020483322212e-05
1.4871767176621077596e-05
1.4854495909162012117e-05
1.4837720429352584806e-05
1.4820230316547667221e-05
1.4803542570461700575e-05
1.4786297858829903248e-05
1.4770012482634140748e-05
1.4752990645722887438e-05
1.4736862157024682685e-05
1.4720202339887268091e-05
1.4704268079638078298e-05
1.4687649069317582092e-05
1.4671520812875457417e-05
1.4654118287400359405e-05
1.4636972304974382776e-05
1.4619078263460003221e-05
1.4602177841649344048e-05
1.4585029540221958332e-05
1.4569193546222255811e-05
1.0418229943764989689e-05
1.0405485680763265925e-05
1.0388125686257753728e-05
1.0375607450856090216e-05
1.0358507664390366853e-05
1.0346350637011712063e-05
1.0329527093766446101e-05
1.0317531611793380507e-05
1.0300643399109919138e-05
1.0288604012683801012e-05
1.0271504618027739756e-05
1.025933359767216043e-05
1.0241928222868485992e-05
1.0229622318077108932e-05
1.0209210326296721565e-05
1.0204041876290667739e-05
1.1789958727283278821e-05
1.1771438576216370999e-05
1.1753663575732781242e-05
1.1737669113570421161e-05
1.1722605294222210773e-05
1.1709166805232076254e-05
1.1696235036227305067e-05
1.1684671216039721502e-05
1.1673119115269329457e-05
1.1662444015382949133e-05
1.165093821141011422e-05
1.1639872077768864903e-05
1.1628135163426203547e-05
1.1617213803341558111e-05
1.1605698891012232012e-05
1.1595008583741603874e-05
1.1583747400117833023e-05
1.1573125097564793183e-05
1.1562093500450912426e-05
1.1551498797998132657e-05
1.1540081668265198231e-05
1.1528900486146292039e-05
1.151669188337189541e-05
1.1504831268957231802e-05
1.1492780236414538967e-05
1.1481483355794819262e-05
1.1469865574715328564e-05
1.1458811335714408361e-05
8.0892050960412397543e-06
8.0755493721787535634e-06
8.0656847747983935145e-06
8.0520833492464145977e-06
8.0423949724651551738e-06
8.0289554233324632819e-06
8.0194184027223847235e-06
8.0059292239262835699e-06
7.9964144551708878664e-06
7.9828537387723898076e-06
7.9732455853305374911e-06
7.9595155732369077446e-06
7.9498299303050026289e-06
7.9337287534582477504e-06
7.9318774095654731896e-06
1.1138769910071982859e-05
1.1118961278576920186e-05
1.1101318777142235201e-05
1.1084658373642058198e-05
1.1069829328992646342e-05
1.1055496195905371634e-05
1.1042513196778906676e-05
1.1029472531299076759e-05
1.1017384153686445847e-05
1.1004702320337510243e-05
1.0992372627419879218e-05
1.0979361880003127316e-05
1.096707782868139823e-05
1.0954454731456166318e-05
1.0942814641975057459e-05
1.0930754429482603999e-05
1.0919328986627843385e-05
1.0907329110122700012e-05
1.0895663182248032622e-05
1.0883290050238454767e-05
1.0871365303626823683e-05
1.0858674446647490359e-05
1.0846444135225649302e-05
1.0833802922658566155e-05
1.0821743616133117061e-05
1.0809159110581593891e-05
1.0797109715411050814e-05
7.6904691716543748529e-06
7.6816140107494471968e-06
7.6696395858308784776e-06
7.6609037601559538835e-06
7.6490587273885044249e-06
7.640483575230709091e-06
7.6286596020362726033e-06
7.6201097771608840596e-06
7.6082105062490768688e-06
7.5995247889802936393e-06
7.5874046000333207314e-06
7.5786193954375415449e-06
7.5647601487336438671e-06
7.5588174650637346638e-06
1.0704212601612334742e-05
1.0687177284413729969e-05
1.0671057423502576433e-05
1.0656678172586817635e-05
1.0642678006366355963e-05
1.0629869767568310602e-05
1.0616979836448988734e-05
1.0605068051482999944e-05
1.0592707115152474301e-05
1.0580725631431835704e-05
1.056807192357544241e-05
1.0556079777310119352e-05
1.0543841577136902658e-05
1.0532646096447230953e-05
1.0521073025690029281e-05
1.0509966424966597076e-05
1.0498075731779397016e-05
1.0486384371144595555e-05
1.047406980179937575e-05
1.0462351250640633001e-05
1.0450004558522419979e-05
1.04381196529916204e-05
1.0425713727181967568e-05
1.0413736380292653449e-05
1.0401084142642275123e-05
1.0388874939968296309e-05
7.3977247952376094388e-06
7.3862484607891726898e-06
7.3778369027186220508e-06
7.3663957094780110776e-06
7.3580558210516101942e-06
7.3466901162041354045e-06
7.3384301173977901727e-06
7.3270850555691360574e-06
7.3187800364337343633e-06
7.3072703396499550464e-06
7.298865431616487704e-06
7.2860003205447138557e-06
7.2797278758131443759e-06
1.0284944109081696549e-05
1.0269398951620519814e-05
1.0255453580124686706e-05
1.0241861872472546031e-05
1.0229430922515510172e-05
1.02169131866437346e-05
1.02053097858128888e-05
1.0193289318366795644e-05
1.0181746262284214878e-05
1.0169647726245608765e-05
1.0158222161227948237e-05
1.0146567872362473247e-05
1.0135887839689635857e-05
1.0124789126277375945e-05
1.0113981574096003914e-05
1.0102220957973755984e-05
1.0090557847852055516e-05
1.0078351251795457342e-05
1.0066866844975562282e-05
1.0054926176108045139e-05
1.0043496639978552435e-05
1.0031582766851603717e-05
1.0020006381320372375e-05
1.0007699102161507417e-05
9.995673996434979345e-06
7.1058747986098716326e-06
7.0977261437687369286e-06
7.086629805375559649e-06
7.0784592065788518424e-06
7.0674357739471915696e-06
7.0593876007270859165e-06
7.0484691512690514939e-06
7.04045987914947804e-06
7.0294528982409565417e-06
7.0213964541816625955e-06
7.0091214250272385151e-06
7.003155727429926973e-06
9.8855205726309473558e-06
9.8717259786980075283e-06
9.8584035542376963988e-06
9.8462646788987748557e-06
9.8340328492844034211e-06
9.8226587031539675139e-06
9.8109135720102330614e-06
9.7997444138305425096e-06
9.7881312257799898827e-06
9.7772187945761640428e-06
9.7660790767699456313e-06
9.7558289401260632733e-06
9.7451401641859039223e-06
9.7346762972079940642e-06
9.723207675728896761e-06
9.7118045965621876986e-06
9.6999141500839383787e-06
9.6888469273232954992e-06
9.6774331536761662491e-06
9.6665221788364563558e-06
9.6550939209285074254e-06
9.6439719736599515218e-06
9.6321539340242427703e-06
9.620596988253859514e-06
9.4984612069657978472e-06
9.4859756193357800275e-06
9.4745743131872520767e-06
9.4629867573585236325e-06
9.4521194798447888728e-06
9.4408444906689338084e-06
9.4301867040535163761e-06
9.419186156800846496e-06
9.4089028573744380274e-06
9.3983385908041221414e-06
9.3885224465880436068e-06
9.3782782399965461249e-06
9.3683311043100317547e-06
9.3574985123581368428e-06
9.3467603519400167122e-06
9.335479061409077085e-06
9.3249054536263483085e-06
9.313944496115074016e-06
9.3034575129207646072e-06
9.2924765970606044556e-06
9.2817671215230897127e-06
9.2703439985644556996e-06
9.2591061082116969612e-06
9.1192605187868819744e-06
9.107476790743028656e-06
9.096455126706132533e-06
9.0852279074102108272e-06
9.074783423568854229e-06
9.0640794908954299693e-06
9.0540819768135820308e-06
9.0438109302555186802e-06
9.034256356187073708e-06
9.0243529761579479692e-06
9.0148496073158769271e-06
9.0046399258948539156e-06
8.9946185501883394548e-06
8.9840014947739200264e-06
8.9738869004532745218e-06
8.963246425052733899e-06
8.9530311343267812322e-06
8.9423899483519528721e-06
8.9320388884429844918e-06
8.9209797121762395e-06
8.9100687410156256834e-06
8.7300216063415034409e-06
8.7198511870146276273e-06
8.7102951725519123938e-06
8.7003998490096777106e-06
8.6911394218279885293e-06
8.681599597493013136e-06
8.672567777247224444e-06
8.6629724032227788273e-06
8.6535992689350836398e-06
8.6435726059070987735e-06
8.6338940387132282237e-06
8.6235994907758283505e-06
8.6136667264069332684e-06
8.6033161573019972324e-06
8.5932575802583520614e-06
8.5825778515035195971e-06
8.5721139937873661399e-06
8.3660695222246920231e-06
8.3566308971319248699e-06
8.3477718107580165143e-06
8.3384773041600414957e-06
8.3294628220118835165e-06
8.3197735172194009278e-06
8.3103221615809766176e-06
8.300207274457411006e-06
8.29041375655669948e-06
8.2801981859826501452e-06
8.2702519801245986714e-06
8.2597478861160572214e-06
8.2495349466475413245e-06
8.0428297548643340551e-06
8.0342677944078338194e-06
8.0252648683316405977e-06
8.0165582087291526993e-06
8.0072489123654012731e-06
7.9981347953056398042e-06
7.9883253634486115435e-06
7.9787508133868729132e-06
7.9687351825755931641e-06
7.9589613665396228648e-06
7.948669912341477028e-06
7.9386940672372307214e-06
4.4439316188354057816e-06
4.4230157036622592146e-06
4.4123779781642861089e-06
4.408318228667372443e-06
4.4071229562684217389e-06
4.4142518682699338604e-06
4.4454160614402381317e-06
4.4836610348797350373e-06
4.5097082643184468106e-06
4.5235517804755371896e-06
4.527693981407463454e-06
4.525545247443498443e-06
4.5211194691804231074e-06
4.5109399500524861347e-06
4.4900387392387508694e-06
4.4746454206828596635e-06
4.4669955422689887513e-06
4.4637120541454067895e-06
4.4634733179789280472e-06
4.4732977701022048726e-06
5.982721984433803302e-06
5.9761819677938748244e-06
5.9718548051834069942e-06
5.9687180270856837188e-06
5.9687678131635802254e-06
5.9698149898000048882e-06
5.9715734537334185932e-06
5.9747338368012136242e-06
5.9771250250099081214e-06
5.9771685459754252047e-06
5.9738025937811158568e-06
5.9685600117672193729e-06
5.9593132183809040898e-06
5.9357358950012121675e-06
5.8740004010421475937e-06
5.8068347323034794419e-06
5.7563571528991865214e-06
5.7223171249696334561e-06
5.7029222184201638988e-06
5.693700337069086616e-06
5.6894907739916534458e-06
5.6878803495980662176e-06
9.6971099241901968861e-06
9.6487396734753674556e-06
9.6145833705515436508e-06
9.5901316109746748676e-06
9.5710590446291513196e-06
9.5574601173854597407e-06
9.5475162230331703879e-06
9.5393224839723140022e-06
9.5332643289524030434e-06
9.5289956688324187808e-06
9.52722823868739198e-06
9.5208170366767538466e-06
9.5121519898366216106e-06
9.4980575054358002177e-06
9.4657873303770792252e-06
9.3793408817189747906e-06
9.2661470055104976936e-06
9.1698203107063230372e-06
9.0949044362165612813e-06
9.0430725921222746818e-06
9.0105795511452540885e-06
8.9923594161540378462e-06
8.9816995590624480397e-06
8.9743052490541852008e-06
8.9679052528203828887e-06
8.9613873677332839344e-06
2.0743843131840929432e-05
2.0708592648645134001e-05
2.0684497660990230959e-05
2.0668192079769840633e-05
2.0654830467265965476e-05
2.0644501174103527437e-05
2.0636006626008549501e-05
2.0627220215374324832e-05
2.0617040039427688325e-05
2.06044295641755422e-05
2.0587618326262537678e-05
2.056444938809492783e-05
2.0531793751427589401e-05
2.047693550476656696e-05
2.037548595472733244e-05
2.0265593196638026594e-05
2.0156548149369771505e-05
2.0058164217406183405e-05
1.9979608216715621975e-05
1.9923572301169825368e-05
1.9887710919979580566e-05
1.9867294201740990311e-05
1.9853425697720619085e-05
1.9841304390758304684e-05
1.9828013338462523651e-05
1.9813343117140468682e-05
1.9795676495126091039e-05
1.9777624471860110822e-05
4.9895825129853741515e-05
4.9826936226111752967e-05
4.9772470062152143159e-05
4.972581606993642855e-05
4.9682205756114663944e-05
4.9639136725838093125e-05
4.9596726542672925093e-05
4.9556619239378562757e-05
4.9519909814014530236e-05
4.9481155399712408436e-05
4.9436483712930664189e-05
4.9380919117777863315e-05
4.9300524882543969086e-05
4.9177613343420201739e-05
4.9036496745792519647e-05
4.8890588826765776082e-05
4.8750196403831558669e-05
4.8626411579643249279e-05
4.852439408295565167e-05
4.8445683382231121664e-05
4.8389954931992604995e-05
4.8348631958703803884e-05
4.8310478518767013302e-05
4.827164828179676719e-05
4.8226047171320596567e-05
4.817869676303099827e-05
4.8127074595994246244e-05
4.8075191766508966083e-05
4.8018345258543753123e-05
4.7958425984856998311e-05
8.5943017039238022142e-05
8.5796757910903636668e-05
8.5650609981667371359e-05
8.550193469391263474e-05
8.534965454606049896e-05
8.5194749661820370706e-05
8.5038629867859741123e-05
8.4882584579424789038e-05
8.4726339055131208423e-05
8.4569707857273958675e-05
8.4412641960938513612e-05
8.425694234921983028e-05
8.4104362021576582103e-05
8.3956924530249605991e-05
8.3815392926282801934e-05
8.3679575025288571006e-05
8.3548503584529904714e-05
8.342178722610735361e-05
8.3299329070167819553e-05
8.3181363589106049666e-05
8.3065748693913986074e-05
8.2949607392432541612e-05
8.2828667997235366901e-05
8.2701480106276993023e-05
8.2568114190493255896e-05
8.2431040488936080878e-05
8.2292197889252541917e-05
8.2155018988790454691e-05
8.2020045598535151537e-05
8.1889216518670453074e-05
8.1761090604903563029e-05
8.1635357098318106018e-05
0.00011029543276956267216
0.00011010607648464997249
0.00010991738825878113485
0.00010972656610628768752
0.00010953522277759041611
0.00010934730485976377123
0.00010916542173608471023
0.00010898860910097117908
0.00010881305506588696635
0.00010863558550186811847
0.0001084561846519644339
0.00010827784979967430791
0.00010810410917979727666
0.00010793589286202173315
0.00010777071561746369031
0.00010760482906887646663
0.00010743500449856339095
0.00010726142156260984111
0.00010708727698300871307
0.00010691636772227216493
0.00010674931054006632199
0.00010658347256879787443
0.00010641532416238442518
0.00010624368016196522125
0.00010606980954379123213
0.00010589645968349101007
0.00010572556422866211871
0.00010555773393884965617
0.00010539146124051910721
0.00010522541273317100074
0.00010505691438044289533
0.00010488561932290603853
0.00010470926794608452633
0.00014200686855558042614
0.00014127877695919001735
0.00014057521308781650436
0.00013990377266882018025
0.00013927471892896426146
0.00013868452798701324342
0.00012309338144983158255
0.00012290069515363222729
0.00012270463789776147809
0.00012250321573284469047
0.00012229992078251401312
0.00012210020522193123192
0.0001219066725940673771
0.00012171653762426787012
0.00012152410092124423207
0.00012132636431935933175
0.00012112570096418215555
0.00012092766852295195159
0.00012073702144131487574
0.00012055461183982938214
0.00012037576484811894704
0.000120193837381221634
0.00012000562134158670275
0.00011981299277692361452
0.00011962092890103417258
0.00011943319933163012016
0.00011924990713167711684
0.00011906718912168271418
0.00011888092917463026347
0.00011869009679663189796
0.00011849702480284135422
0.00011830511997325497675
0.00011811656506342574336
0.00011793111337271283549
0.00011774729506610637773
0.0001175626169279443418
0.0001173752205701830291
0.00011718322624499456037
0.00011698887594629577501
0.00011679155192707236437
0.00013450694723308870824
0.00013370275900121086866
0.00013293422515564374772
0.00013221580568345171086
0.00013157165149780847843
0.00013100818177449728599
0.00013050606611413200528
0.00011550193353885261638
0.00011531261218646816804
0.00011510788435528224963
0.00011489686869533832509
0.00011469082491236361123
0.00011449323154459639272
0.00011429757129283066265
0.00011409490872100826772
0.0001138836626547136741
0.00011367154356208411319
0.00011347040639090416028
0.00011328528490774017869
0.00011311058746504060906
0.00011293347906228861559
0.00011274263473022931288
0.00011253577488604902266
0.00011232135152090554802
0.00011211215734583781568
0.00011191616587170960062
0.00011173155440843493698
0.00011154901964893025449
0.00011135961315960746763
0.00011116259721387353253
0.0001109649602084770238
0.00011077622416824699182
0.0001106004144544103985
0.00011043530090922578193
0.00011027481214259228037
0.00011011430340252860178
0.00010995168630032115713
0.00010978872798095932746
0.00010963056277804768008
0.00010948453236753995503
0.00010935666676420599628
0.00010924828195391760586
5.3571759141238009982e-08
5.3606390403026643033e-08
5.3659892763404984732e-08
5.3689581407625018958e-08
5.3732170875399467467e-08
5.3770283223093137693e-08
5.3776537348400923871e-08
5.3838896565799185266e-08
5.3818994105196838442e-08
5.3883407286276206042e-08
5.3852584664867651678e-08
3.7699728624031606119e-07
3.4712578553291365921e-07
3.1867989540327506802e-07
2.9192140899152311786e-07
2.6702113134776323808e-07
2.4407956991536534251e-07
2.2316445376723180395e-07
2.0431632774603690394e-07
1.8754267274074569321e-07
1.7280772907735186032e-07
1.6002959634113921201e-07
1.4910306015373522368e-07
1.3991566209089927302e-07
1.3233437054306783322e-07
1.2617443605208119267e-07
1.2121182984415266679e-07
1.172093641340920102e-07
1.1395006982872104465e-07
1.1123846338444329896e-07
1.0895606050483701552e-07
1.0701806240147331375e-07
1.0538438532508882931e-07
1.0400216503764346449e-07
1.0286104484868925187e-07
1.019151501768951527e-07
1.0111927413643728292e-07
1.0037070098331734851e-07
9.9665162005642461781e-08
9.9014013598477134136e-08
9.8501284461894465357e-08
9.8090141984191664439e-08
9.7701768433034611779e-08
9.7174160572913423635e-08
9.6459924865265563484e-08
9.5566080542551253748e-08
9.4626403463176219693e-08
5.6271532834246480937e-08
5.6259592556687818624e-08
5.624348030348049347e-08
5.6224920389944749441e-08
5.6203626761262885451e-08
5.6183739310203980908e-08
5.6173299098692972438e-08
5.6170962121683874723e-08
5.618011496432976613e-08
5.6194237232333818115e-08
5.6209261854830379609e-08
5.6209973412771615585e-08
5.6212447527182851712e-08
5.6206011715252263469e-08
5.6203415102036381738e-08
5.6206723602030238267e-08
5.6195683217892459952e-08
5.6232635748027862658e-08
5.6204213452647011976e-08
5.6272520922882388127e-08
5.6202338847714852931e-08
3.9771171345378080124e-07
3.6548577023276135248e-07
3.3489206078509012724e-07
3.0622043346869322153e-07