/*--------------------------------*- C++ -*----------------------------------*\
  =========                 |
  \\      /  F ield         | OpenFOAM: The Open Source CFD Toolbox
   \\    /   O peration     | Website:  https://openfoam.org
    \\  /    A nd           | Version:  12
     \\/     M anipulation  |
\*---------------------------------------------------------------------------*/
FoamFile
{
    format      ascii;
    class       volScalarField;
    location    "0.00514";
    object      p;
}
// * * * * * * * * * * * * * * * * * * * * * * * * * * * * * * * * * * * * * //

dimensions      [1 -1 -2 0 0 0 0];

internalField   nonuniform List<scalar> 
106891
(
98617.793594308270258
98607.745520770578878
98600.015585092143738
98594.6364205921127
98591.646495170920389
98590.913296756945783
98592.175358377236989
98594.876382158341585
98598.194035385953612
98601.582529084087582
98604.219096516477293
98722.699612177704694
98723.009725106981932
98719.415613308810862
98708.471190003314405
98690.627164703502785
98670.781727592417155
98655.464699418545933
98649.182070405193372
98652.276753742989968
98661.600907204527175
98672.517210441525094
98681.111490221126587
98685.214528872529627
98683.672720506699989
98675.755759583160398
98661.480299069255125
98642.835251275813789
98623.440093873010483
98606.610857117644628
98593.950264477651217
98585.105741046136245
98579.107020418567117
98575.824846107279882
98576.300495320450864
98581.694753971401951
98591.418591283145361
98602.55907215316256
98611.364974661642918
98615.78472670634801
98616.765037265708088
98616.634736472784425
98616.553059101541294
98615.63379372828058
98611.983670127112418
98604.985497434681747
98596.501855829570559
98589.967597762253718
98587.996090266911779
98820.252269296935992
98807.029691058385652
98789.672791979464819
98769.465850148160825
98747.995353484584484
98726.595208765764255
98706.409582428372232
98688.117877612254233
98672.078471835469827
98658.442878779620514
98647.118844691794948
98638.027896552768652
98631.136224280227907
98626.491952501732158
98624.108418661940959
98623.822273169702385
98625.424286446490441
98628.241536047164118
98631.668318020165316
98634.655940246841055
98707.69304114964325
98708.079155764789903
98701.546686465473613
98687.235021460903226
98669.125922383376746
98653.507597507952596
98645.291770913332584
98645.578760719232378
98651.970322391789523
98660.770660037233029
98668.739814386804937
98673.273437356110662
98672.370332983889966
98664.461025684111519
98649.336319013178581
98629.23750462908356
98608.62208239021129
98592.357467645604629
98583.283179044534336
98580.854615354750422
98582.31540793601016
98585.38361951263505
98589.662151314274524
98596.008033910839004
98604.542778782808455
98613.719962243456393
98621.117683372809552
98625.075900828378508
98626.068521552573657
98626.042409111221787
98626.140397644456243
98625.473204977592104
98622.291747148628929
98616.203802585820085
98608.852249293238856
98602.915001097368076
98863.207707197434502
98851.752790033118799
98835.593541113063111
98816.091626161491149
98794.75399343862955
98773.209027860430069
98752.67366394464625
98733.914097431246773
98717.290795776556479
98702.826309747732012
98690.413976153562544
98679.866051350720227
98671.189912284913589
98664.515336334705353
98660.070791132078739
98657.957830227343948
98658.278886908170534
98660.549121151707368
98664.264159267971991
98668.28256637994491
98692.916736364277313
98696.846953711312381
98695.359436191385612
98686.055092650523875
98670.831899169803364
98654.735808659446775
98642.875287986447802
98637.974468381085899
98639.678477600231417
98645.574040572741069
98652.499813381524291
98657.325283884885721
98657.076900688989554
98649.404572959669167
98633.744506413830095
98612.6804736473714
98591.844787222158629
98577.825007687468315
98574.644536530671758
98581.26133062725421
98592.546262501127785
98602.938420114587643
98609.613145092414925
98613.079368215694558
98615.740166621981189
98619.360430358836311
98623.834956524136942
98628.021701754405512
98630.940488462423673
98632.506426048144931
98633.039604568490176
98632.078416121163173
98628.82445344113512
98623.578837433393346
98618.108337144411053
98614.451418958880822
98886.379354195378255
98872.78503148946038
98855.646605431524222
98836.493147380533628
98816.726507902116282
98797.57236229996488
98779.816956841896172
98763.663613876808085
98749.070336376389605
98735.823136023624102
98723.840448867078521
98713.202403785136994
98704.280444952382823
98697.518707128270762
98693.500863777531777
98692.641706217633327
98694.72681287881278
98699.353953140293015
98705.186949674302014
98686.83967337141803
98690.939487774594454
98687.568269038994913
98675.807566417352064
98658.635149609399377
98641.431038718568743
98629.338838207535446
98624.814692189422203
98627.068367508705705
98632.968818681270932
98638.33455252967542
98639.028400757102645
98632.033944239985431
98616.827268460023333
98596.399135658604791
98577.192297756439075
98566.976952424258343
98570.633022478388739
98586.679494873140357
98607.739669119604514
98624.737438865413424
98631.947495672822697
98629.796154911877238
98623.534819148815586
98619.169647199931205
98619.929718796061934
98625.2494440364826
98632.026916008864646
98636.959700590232387
98638.235778742353432
98635.960533935314743
98631.408304642362054
98626.320552230492467
98622.58663781415089
98913.672898784381687
98907.977432408733875
98898.038462867392809
98884.812043861544225
98869.492382816257305
98853.313602131820517
98837.300454791984521
98822.090704293150338
98807.757767282077111
98793.964473149986588
98780.523086924105883
98767.500532629754161
98755.259377855691127
98744.414822373990319
98735.849341388500761
98730.425223307058332
98728.917540718306554
98731.445748552985606
98737.636324471386615
98746.124256847033394
98678.893937963279313
98688.601880932052154
98690.757704892967013
98681.730669348340598
98662.714370923582464
98639.654620863584569
98620.057079195990809
98609.140156803201535
98607.608132520108484
98612.187205749680288
98617.778795961159631
98619.540199779876275
98614.304480910839629
98601.764372620702488
98585.041539330239175
98570.474578038207255
98565.367628290696302
98574.480234205824672
98596.681144316375139
98623.926359977311222
98644.814180240835412
98651.229901950951898
98643.143440742249368
98627.994010191978305
98615.78615778699168
98613.099062572364346
98619.945268805458909
98631.145321089730714
98640.062850519650965
98642.425914921215735
98638.149663091171533
98630.695140259471373
98624.115753752499586
98916.611852736867149
98910.767188741578138
98902.138321110818652
98891.599255467604962
98880.080822997668292
98868.287297889837646
98856.631711028458085
98845.131561930043972
98833.450408798162243
98821.27682780190662
98808.615120406830101
98796.058393828498083
98784.645354839143693
98775.685104115807917
98770.328085505592753
98769.523243187562912
98773.529148939924198
98782.053439063616679
98793.551314216048922
98685.386552736381418
98690.99820687576721
98683.325940553608234
98662.930941955375602
98636.043820022765431
98611.38849603185372
98595.760854338819627
98590.937319210686837
98593.68759277589561
98598.522043018121622
98600.911569357995177
98598.654777288204059
98591.95431361955707
98583.203577327367384
98576.56098271816154
98576.952619924675673
98588.318310330505483
98610.568008450063644
98637.204638775554486
98657.442870900122216
98662.496679807431065
98651.272095356645877
98631.330457379823201
98614.371345422579907
98609.080623159999959
98616.40945013295277
98630.099554750835523
98641.332177801232319
98644.41280170432583
98639.121608596600709
98629.364650750023429
98620.550613401152077
98915.630421528432635
98913.241146925036446
98908.936882191061159
98903.111843156875693
98896.367356402683072
98889.143563040110166
98881.634201366439811
98873.832764792692615
98865.50736425917421
98856.318756303444388
98846.29072137500043
98836.042394081654493
98826.738457623272552
98819.903958270646399
98816.834151090602973
98818.489352836972103
98825.002669290755875
98835.935183252135175
98849.590173721997417
98681.199446038794122
98674.662607285135891
98655.498040586855495
98629.399001056415727
98604.679250643253908
98587.996951352324686
98581.204080061594141
98581.672942253178917
98585.128212345676729
98588.561447211977793
98591.065736661505071
98592.862534872241667
98594.410689287760761
98596.500236335676163
98601.062414334039204
98610.57173184894782
98626.141819829732412
98645.102565484208753
98660.272785070439568
98664.081554047239479
98654.252238850385766
98636.208353812384303
98619.869430387363536
98613.302832405097433
98617.943713269123691
98628.71692114637699
98638.248417821494513
98641.536913287913194
98637.838609585611266
98629.861848371991073
98906.915937524550827
98905.160982193934615
98902.791501768224407
98900.092689615034033
98897.296724031199119
98894.46513741981471
98891.464255113343825
98888.00913707856671
98883.986199353268603
98879.563331067896797
98875.269043508087634
98871.97883614305465
98870.831231765158009
98872.881699747085804
98878.661375638679601
98887.970851045785821
98899.993700388004072
98913.179900157367229
98650.656148646856309
98637.775535484281136
98619.217273816553643
98600.536209189711371
98586.785660013716551
98580.260165148647502
98580.072430283471476
98583.841544374969089
98589.868971525123925
98597.80185960898234
98607.515230979654007
98617.678504844414419
98626.070701287011616
98631.52525442604383
98635.321822030018666
98640.048572837840766
98646.961104408488609
98654.342826698979479
98658.260838939706446
98655.447985017686733
98646.198505907683284
98634.413832427409943
98624.99038742139237
98621.02655999896524
98622.540834801940946
98627.109243963437621
98631.817227884122985
98635.159551549950265
98897.450875398310018
98895.63915476614784
98894.547797516497667
98894.354868010719656
98895.187899816868594
98896.957129372152849
98899.494687399783288
98902.720303213209263
98906.516576688722125
98910.761059612748795
98915.523171761757112
98921.10901363803714
98927.949312787954113
98936.341680375175201
98946.242835840210319
98957.135250403152895
98968.073541106001358
98977.77981264522532
98614.631148285494419
98607.981671721296152
98599.186162142781541
98591.761877323457156
98588.547204458329361
98590.562985261945869
98597.234304898680421
98607.530065109152929
98620.522179599734955
98634.749894043299719
98647.535312107167556
98655.690757771400968
98657.242879369907314
98653.210196484156768
98647.441405945195584
98644.34964510059217
98646.3513669398817
98652.112903613480739
98657.089778792986181
98656.4257362318167
98648.052718815466505
98634.034097089752322
98619.502443099001539
98610.25056921322539
98610.533642806040007
98621.063613367310609
98637.873906066917698
98890.037906769561232
98889.086837211027159
98890.467764566870756
98894.216004373767646
98900.223282242324785
98908.329340240787133
98918.315968545284704
98929.884822163672652
98942.767441907955799
98956.578748173473286
98970.825008096580859
98984.943579448023229
98998.243844521755818
99010.001335593580734
99019.403956025416846
99025.706683390191756
99028.368688868285972
98586.446611297986237
98592.831805768204504
98596.228401815547841
98597.208570549104479
98598.025784213896259
98601.213968253869098
98608.395307901824708
98619.864829681799165
98634.717780741484603
98650.991359391366132
98665.572256680577993
98674.884667077043559
98676.28601644434093
98669.638850145740435
98657.943907275650417
98646.393222584563773
98640.153666343976511
98641.736544871790102
98649.373240512475604
98657.602204487426206
98659.883415324700763
98652.088808872678783
98635.40912069712067
98616.543046961072832
98604.719364279764704
98607.241061751832603
98625.563690525566926
98895.170884080245742
98897.830125595719437
98903.488067035519634
98912.041874514281517
98923.396112508213264
98937.418418500441476
98953.829863997394568
98972.076907153430511
98991.22086937034328
99009.987725409053382
99026.944331987499027
99040.675617099186638
99050.141335287989932
99054.805175974368467
99054.558719947555801
99049.902068993978901
98575.091128350744839
98581.541555789022823
98586.295825197521481
98590.817038768422208
98596.993417926438269
98606.2420275559125
98618.977441383016412
98634.665975049632834
98651.902169661756488
98668.188367594368174
98680.050729797017993
98684.197161606571171
98679.269450158710242
98667.156025353833684
98652.592875333022675
98641.183987359851017
98636.901006370593677
98640.173302321825759
98647.867008023531525
98654.823665925505338
98656.32449244329473
98650.191235853373655
98638.10074738432013
98625.577270399779081
98619.863031061933725
98626.387265661964193
98645.826339418010321
98673.358545012495597
98914.702890985499835
98920.244378810719354
98928.182757680930081
98938.76430284602975
98952.116787119899527
98968.081097693706397
98985.965462741107331
99004.513232821045676
99022.045552817668067
99036.756790038460167
99047.170521376872784
99052.401279080368113
99052.330200696218526
99047.475439282483421
99039.035738625301747
98578.671833492160658
98581.644065499029239
98585.202045422396623
98592.341638138808776
98604.369242535103695
98620.558118137778365
98639.005420490677352
98657.136846860812511
98671.861143564790837
98679.954707120195962
98679.247998277089209
98670.115147102391347
98656.178714216439403
98642.964048787252977
98635.302436341546127
98635.026757123370771
98640.468224671771168
98647.786988071922679
98653.163159295698279
98654.31026156747248
98651.151601219855365
98645.712537642204552
98641.509941919241101
98642.668457533305627
98652.160504486295395
98669.614684049403877
98690.672987852827646
98932.171652457167511
98937.888059685225016
98945.854206360745593
98956.579666460180306
98970.090962201837101
98985.643842019941076
99001.803588763534208
99016.63649104545766
99028.210007732181111
99035.078659264399903
99036.58911934265052
99033.05192495904339
99025.491501018666895
99015.629609198193066
98578.728640993489535
98579.677620055779698
98585.103837342481711
98597.035148432143615
98614.513543690511142
98634.336652640849934
98652.314395031004096
98664.545816921396181
98668.357578794559231
98663.194777220138349
98651.515923018523608
98638.490225510511664
98629.78645357635105
98628.561717742020846
98634.043441623696708
98642.555848941701697
98650.201689623325365
98654.974569754311233
98657.06909381346486
98657.983728491090005
98659.359773282209062
98662.729688859471935
98669.351406072295504
98679.572189066253486
98692.159592021620483
98703.989288252734696
98938.054398273510742
98942.224561924202135
98949.164899440700538
98959.144486442062771
98971.49763968292973
98984.697553634890937
98996.721654992506956
99005.531371210920042
99009.635621850175085
99008.60233856861305
99003.120304815616691
98994.593065659209969
98985.077594945745659
98572.148902960616397
98574.601543022115948
98584.499979404863552
98601.301369497843552
98621.170149031793699
98638.609266063882387
98648.617673841290525
98648.686683010033448
98639.990201716107549
98627.334275176966912
98617.174827410592115
98614.643702336717979
98620.923821820819285
98632.890383682970423
98645.414134862105129
98654.797903751561535
98660.659098458243534
98665.020540011682897
98670.090864772704663
98676.797569179980201
98684.85072536021471
98693.452654487060499
98701.563480937722488
98707.540265018978971
98709.409851516669733
98927.66984260744357
98930.982573866378516
98937.583340236436925
98946.883882764610462
98957.329271302311099
98966.871259301624377
98973.539751730015269
98976.081013801638619
98974.167991755195544
98968.616184321173932
98961.076557708365726
98953.564895250980044
98560.825816957047209
98567.951726344414055
98582.921692579810042
98601.883291263409774
98618.523430549452314
98626.967780441831565
98624.679019152099499
98614.116001274218434
98601.886993524734862
98595.39377912254713
98599.0360067775473
98612.22464636292716
98630.166286150109954
98647.071046522294637
98659.645121861118241
98668.451170083048055
98676.217355865766876
98685.007186487215222
98694.777097407335532
98703.973761240238673
98710.833371676984825
98713.980543769270298
98712.366189518827014
98705.361091824612231
98548.985371880684397
98561.817058039072435
98579.247222226389567
98594.690639376131003
98601.992380165669601
98598.915028427582001
98588.643999641397386
98578.350528981900425
98575.495557997142896
98583.985187217243947
98602.290571840218036
98624.838549280117149
98645.785903799463995
98662.353598612375208
98675.4235027142131
98687.360263007358299
98699.255260729449219
98709.925690001502517
98717.063583307783119
98719.024606733393739
98715.434493885113625
98706.552115364276688
98692.670144753326895
98555.644738203453016
98569.334131172130583
98575.686935425343108
98573.049462604496512
98564.816098962488468
98557.708804109017365
98558.383106578752631
98570.120568158992683
98591.289683429451543
98616.640017473328044
98640.842124977134517
98661.492500386637403
98679.136585001280764
98695.047580891230609
98708.9332340532128
98718.604645427709329
98721.592615170171484
98717.288545024261111
98706.958694719811319
98692.082237130525755
98673.471059731338755
98542.833682498108828
98539.415699435427086
98543.363393108011223
98557.251103971197153
98579.535199475431
98605.951288607815513
98632.207936760823941
98656.090821663514362
98677.417670042210375
98696.158762217339245
98710.671869223442627
98718.106055513999308
98716.597032533565653
98706.611098843233776
98690.747484920706484
98671.642353457471472
98650.302992504221038
98566.819948866221239
98593.267056879485608
98620.270079508627532
98645.736277069168864
98668.838401683955453
98688.508563404335291
98702.290125301180524
98707.242221085471101
98701.960820021151449
98687.96004539198475
98668.792799407092389
98647.635995886128512
98625.42811495764181
98578.823000176809728
98605.097219481351203
98630.370080916298321
98653.229505912546301
98671.983327232999727
98683.84154826462327
98686.169652074328042
98678.224968602633453
98662.347872809157707
98642.446074955063523
98621.476799135212786
98600.164856794843217
98764.804937814260484
98760.926686954233446
98756.349911653451272
98753.310553687580978
98752.89359234260337
98754.428693904774264
98757.289889049745398
98760.602141581490287
98762.670448891891283
98760.470571315017878
98751.563803514422034
98737.040665863634786
98721.546008497840376
98710.22984316322254
98704.567681036423892
98701.065409040675149
98693.982674542785389
98680.035731052179472
98661.156542569908197
98642.433626416066545
98770.748299967148341
98770.168474422578583
98768.058561313620885
98763.154128940936062
98756.042388388814288
98749.843496785964817
98748.104826988375862
98752.421107042493531
98761.208628123582457
98769.737530407510349
98771.6530424701632
98763.292661498955567
98747.128881142460159
98730.39660829033528
98719.736447015748126
98716.004717454066849
98713.641777696670033
98705.487331598225865
98688.560614411850111
98666.163950928676059
98644.838962195964996
98628.837092113972176
98783.115517001162516
98777.432377760414965
98773.971498615850578
98774.372545192512916
98774.253046154728509
98769.155561433624825
98758.267912175579113
98746.464866520575015
98741.348350206055329
98746.776894506707322
98760.755734652033425
98775.357746268273331
98781.028596631411347
98773.176834362311638
98755.557047085298109
98737.796815007328405
98727.874208566339803
98726.055494017142337
98724.887252762317075
98715.779469581742887
98696.079310814253404
98670.414824654450058
98646.600462947913911
98629.54329353866342
98618.425073297214112
98608.146983431230183
98798.041831257127342
98792.263434579930617
98781.993109197544982
98776.1811539807386
98777.539732555916999
98779.618357679879409
98774.407507250449271
98760.100046642503003
98743.183340650677565
98734.645063959207619
98741.04764238455391
98759.677163527841913
98779.659041088118101
98788.748809797660215
98781.338105175105738
98762.410467023830279
98743.748434167151572
98734.605338431429118
98734.64127367225592
98734.666045725010918
98724.761437505672802
98702.532167703655432
98673.896307163391612
98647.793458241547341
98629.743629281176254
98618.916287024258054
98609.766569129365962
98595.64436286437558
98803.599040607281495
98808.993639507010812
98799.812134496576618
98785.270901997617329
98777.483518447552342
98779.826986357787973
98784.136904835642781
98778.982493130504736
98761.54976809634536
98740.023997982571018
98728.35979830272845
98735.484501968865516
98758.279089961884893
98783.111512382034562
98795.191050794092007
98788.056582031029393
98767.887866018456407
98748.358970248344122
98739.977202229900286
98741.791372658786713
98742.974756502793753
98732.448517662385711
98707.949464023520704
98676.626196842567879
98648.486719888838707
98629.567604390438646
98619.038632343086647
98610.989043468769523
98598.173564619559329
98574.965815464427578
98793.219785047433106
98812.582157520504552
98818.099603891954757
98805.868296569227823
98787.520939211099176
98778.062170313642127
98781.470017042636755
98787.841591971562593
98782.934620677508065
98762.656006861216156
98737.164188092414406
98722.681120022651157
98730.391952337799012
98756.80188690579962
98785.887627029558644
98800.52286172483582
98793.473169683420565
98772.054018061477109
98751.692574769433122
98744.023514799613622
98747.533551223532413
98749.821266482133069
98738.826202184616704
98712.360862140165409
98678.66055837564636
98648.764505109254969
98629.137652747085667
98618.929932122773607
98611.932613742304966
98600.344271814101376
98577.827200162006193
98541.950695740233641
98797.883777047842159
98819.758325911505381
98825.260120669365278
98810.392065101666958
98788.870393261531717
98778.055821689529694
98782.538383553575841
98790.718065836437745
98786.120154691394418
98763.527346023591235
98734.603361529370886
98717.925421100488165
98726.027147138578584
98755.43907855184807
98788.10825122136157
98804.797061092642252
98797.674045709092752
98775.022560847719433
98753.923011076331022
98746.838625134507311
98751.862780992974876
98755.165272295285831
98743.819113994381041
98715.738797208206961
98680.042241188028129
98648.709439430065686
98628.554805535852211
98618.68283505900763
98612.639539117328241
98602.146286674134899
98580.215694375729072
98543.96336676926876
98496.851401180087123
98746.321139140083687
98711.184726774605224
98646.599881007947261
98573.60324946626497
98525.773208580867504
98509.780049704073463
98800.950085380813107
98824.849740220015519
98830.287167591057369
98813.378164093432133
98789.51469105045544
98777.743529659812339
98783.18857280863449
98792.814163917457336
98788.397844684295706
98764.154475293922587
98732.595117111093714
98714.334908736098441
98722.684255504325847
98754.354150196202681
98789.78634085781232
98807.917906291142572
98800.620652653029538
98776.900516843888909
98755.216042626751005
98748.546969659306342
98754.786884295928758
98758.961354562474298
98747.348424608891946
98718.052340746187838
98680.852559536520857
98648.47396553462022
98627.991108547634212
98618.426782595604891
98613.148273839382455
98603.514201227735612
98582.029262401454616
98545.474536096851807
98497.377741973163211
98447.031551003776258
98772.853573540429352
98745.451893184203072
98709.255191529722651
98643.665083149477141
98569.45071202678082
98521.834583447984187
98507.086254813839332
98802.560951388193644
98827.646158464194741
98832.834809579435387
98814.831181529923924
98789.666811572300503
98777.441123975266237
98783.502498980073142
98793.960339095967356
98789.583284094333067
98764.398243607807672
98731.364221306750551
98712.175958624095074
98720.974816134606954
98753.813611085177399
98790.864057490980485
98809.69583117190632
98802.144841230765451
98777.767200888760271
98755.739147656538989
98749.348366906531737
98756.342901325479033
98761.038588394236285
98749.196285416081082
98719.188481678589596
98681.146692839625757
98648.216486063582124
98627.614386345259845
98618.273465843129088
98613.465375299594598
98604.327326641941909
98583.056661172842723
98546.263614642433822
98497.620197354088305
98446.612229261285393
98403.028510273012216
98695.226609217090299
98703.196984068403253
98710.440387206210289
98715.611540309822885
98717.371424758253852
98714.795469617281924
98707.483499310663319
98695.739487425264088
98680.164409522112692
98661.949512408828014
98642.072614213175257
98715.904985446104547
98722.898402753373375
98731.449002417808515
98735.748426981837838
98731.915337796686799
98719.82980477505771
98702.342859804470208
98683.481432214670349
98667.279058099215035
98657.291018108458957
98655.696871811960591
98662.145033843014971
98672.523861421810579
98680.283750485294149
98679.946240987017518
98670.091903590466245
98652.082421210463508
98629.621777501291945
98606.761175390420249
98586.459861585593899
98570.477278851773008
98559.507372024323558
98553.416674106512801
98551.437380278177443
98552.95536239464127
98557.974433816925739
98566.706791819204227
98578.273079885344487
98589.590064434552914
98595.802488560846541
98592.901779700492625
98580.989916090926272
98565.498306211811723
98554.825072766034282
98555.570743383301306
98568.342712615718483
98736.814537278929492
98732.059515978122363
98729.156968555398635
98727.347856602136744
98726.289457008853788
98725.918328431696864
98726.393679241213249
98727.845858702887199
98730.364634656958515
98733.789459975349018
98737.704712867343915
98741.498087585467147
98744.530148593665217
98746.129069809408975
98745.58446565218037
98742.24458233625046
98735.642079819255741
98725.730642738984898
98712.716879414874711
98697.4146790671075
98680.294398035519407
98705.850435887186904
98712.629153287489316
98723.422579683538061
98732.555707819235977
98734.664088125689887
98727.357627141056582
98711.815615769097349
98691.688218736861018
98672.288596835845965
98658.877670242203749
98654.628965417374275
98658.950921552546788
98667.375791690690676
98673.216118985554203
98671.39553725985752
98661.041880984354066
98644.968602017121157
98627.673275866050972
98612.440435825046734
98600.397250336769503
98591.171408466732828
98583.971741687564645
98578.262711746967398
98573.889615841442719
98571.290348579161218
98571.441113273191149
98575.042041041422635
98581.155913445967599
98586.329452070815023
98585.548263500182657
98575.217177689220989
98556.386985266479314
98535.841591389107634
98523.419095785575337
98526.603355025770725
98545.790861086381483
98779.006624069210375
98776.544782842844143
98775.961009925536928
98776.479289834882366
98777.479803406706196
98778.567715368903009
98779.58009352730005
98780.435284231964033
98781.131181254066178
98781.684662469531759
98782.008627320596133
98781.902778850868344
98781.192579982511234
98779.677342386261444
98777.134352702487377
98773.246108331630239
98767.540449898049701
98759.675606995791895
98749.368311825281125
98736.88742966245627
98722.223064064892242
98694.125706564707798
98704.670791586919222
98717.178968934371369
98725.106822061163257
98723.382188665491412
98710.999024639022537
98691.288435470531113
98670.256977916753385
98654.423457184006111
98647.717551877911319
98649.694728857357404
98656.016265848214971
98660.587868882692419
98658.784486516553443
98650.282099571428262
98638.734146166258142
98628.570377851545345
98621.995514674228616
98618.535638200890389
98616.29655151143379
98613.302091035700869
98608.581884890736546
98602.110891760166851
98594.808651894709328
98588.351240541654988
98584.471269541376387
98583.053310675240937
98581.119702102369047
98573.930367754161125
98558.129185879253782
98535.133255975335487
98511.995178749421029
98498.774898801930249
98503.375934215451707
98822.348953925917158
98823.926036405289778
98826.457865103380755
98829.149056185953668
98831.461113805649802
98832.901191464741714
98833.227377430725028
98832.350740459442022
98830.3530665399594
98827.591980646597221
98824.369591125199804
98820.952076497007511
98817.43487292942882
98813.745630986682954
98809.579058470830205
98804.476985914938268
98797.954860806217766
98789.423577812369331
98778.85603579346207
98765.958419263144606
98668.913244476236287
98675.55835340511112
98688.124521216508583
98699.946267215316766
98704.115327654959401
98697.099382467480609
98680.778759250853909
98660.884076591712073
98644.278027809385094
98635.798290605744114
98635.689256934114383
98640.222092497046106
98644.483102587953908
98645.073883527860744
98641.914190038412926
98637.582705198248732
98635.017221315865754
98635.502466444799211
98638.17192915911437
98640.724902750429465
98640.855206714957603
98637.104332929244265
98629.157955581511487
98617.748070560570341
98604.972332186080166
98593.505145120536326
98584.545657806345844
98576.444844040845055
98565.155568819580367
98547.253446930437349
98523.794838295681984
98501.170424003750668
98488.611887053921237
98493.561173207155662
98867.375156130059622
98870.39795882650651
98874.15416019197437
98877.908738978687325
98880.937336212256923
98882.678319670070778
98882.769099452794762
98881.091914118733257
98877.841820173955057
98873.421721923295991
98868.502869039497455
98863.597379867002019
98859.030354182599694
98854.786074333242141
98850.525460453354754
98845.647714196369634
98839.580048440693645
98831.674212408790481
98821.819121729029575
98809.877306196372956
98639.659345880107139
98648.018228309301776
98660.554878475013538
98669.934604168840451
98670.324053122894838
98660.753997498424724
98645.233131014785613
98629.970517911016941
98620.249710863208747
98618.092321960939444
98622.0125724402169
98628.752033555138041
98635.335308352878201
98640.325428993877722
98644.072167615871876
98647.682991743684397
98651.808374772328534
98656.148785253593815
98659.755961896051303
98661.079161525936797
98658.141433041906566
98649.579263823368819
98635.561228649195982
98618.206361728865886
98600.757109326426871
98585.893668491247809
98573.680159994546557
98561.244700578419724
98545.505092905732454
98526.269283895351691
98507.8948541777645
98497.919480228854809
98913.886934900845517
98917.617351125649293
98921.129560112778563
98923.906115032281377
98925.48645047924947
98925.474545298013254
98923.730920877293102
98920.439359948562924
98916.033287148820818
98911.047330482659163
98905.998145937424852
98901.183528240624582
98896.559690077192499