/*--------------------------------*- C++ -*----------------------------------*\
  =========                 |
  \\      /  F ield         | OpenFOAM: The Open Source CFD Toolbox
   \\    /   O peration     | Website:  https://openfoam.org
    \\  /    A nd           | Version:  12
     \\/     M anipulation  |
\*---------------------------------------------------------------------------*/
FoamFile
{
    format      ascii;
    class       volScalarField;
    location    "0.00514";
    object      rho_0;
}
// * * * * * * * * * * * * * * * * * * * * * * * * * * * * * * * * * * * * * //

dimensions      [1 -3 0 0 0 0 0];

internalField   nonuniform List<scalar> 
106891
(
1.14718879533320961
1.1471063533313170524
1.1470421677206414923
1.1469995150136975681
1.1469744138958608559
1.146970626760468237
1.1469808499407991853
1.1470038443939984951
1.1470329851739944349
1.1470567397507027696
1.1470839333139757343
1.1480737634147504256
1.1480718492454122792
1.1480369340159748415
1.1479410943847661031
1.147789407112718596
1.1476235600982578333
1.1474976622339683185
1.1474480338538131097
1.1474761405341724618
1.1475548232664791737
1.1476452574249098593
1.1477153326046003468
1.147747551248520681
1.1477328494984644358
1.1476654133800325841
1.1475459399194445353
1.147391346084839947
1.1472315826576557907
1.1470935240019186629
1.1469897911268309709
1.1469171282649595067
1.1468677849227550958
1.1468412634480984469
1.1468466081960313474
1.1468931634039913892
1.1469752040938760995
1.1470678533414302436
1.1471400268327107685
1.1471756811640161366
1.1471836556977756949
1.1471834170185448709
1.147183921058948064
1.1471769323522669204
1.1471463406562818488
1.1470874395086936293
1.1470165517150843204
1.1469627700787943247
1.1469476822269883964
1.1488750294887524195
1.1487633522494105076
1.1486177786960762859
1.1484489224568714683
1.1482699281393502488
1.1480918416983663111
1.1479240550255813691
1.1477722190256534063
1.1476393452905271353
1.1475263328706322152
1.1474334613291803375
1.1473581360914055782
1.1473030408046487327
1.1472644324731524623
1.14724705235635005
1.1472445904873009859
1.1472586343129722586
1.1472837054786901856
1.1473080504637112043
1.1473381712617971573
1.1479370514712254892
1.1479360810655101499
1.1478774743122477364
1.1477555865971091897
1.1476045595153461232
1.1474766068919206585
1.1474114478384735971
1.147416749739224473
1.147471601673543784
1.1475450854220290431
1.1476105037179265
1.1476467264083327624
1.1476376709038560442
1.1475708455281552478
1.1474450822289878893
1.1472793582480385055
1.1471105423412815139
1.1469783003456079928
1.1469051582228735331
1.1468858208495300577
1.1468975841254480663
1.146922386916517933
1.1469577436901252643
1.1470108535736436295
1.1470821150457244375
1.1471581085822608603
1.1472187068645869346
1.1472508127025924374
1.147259266345787676
1.1472604835162425463
1.1472632289059068178
1.1472591128648004233
1.1472331543996605596
1.1471823627830566306
1.1471209400699251546
1.1470716329193677563
1.1492322754206860669
1.1491351228567225906
1.1489992679505598439
1.1488360514043767235
1.1486580530517471743
1.1484786952698848861
1.1483080384815411712
1.1481523201995953443
1.1480146966201532077
1.147894860674237405
1.1477930538635374713
1.1477057392155305404
1.1476359456725568897
1.1475807523380325836
1.1475464735601725863
1.1475292034027155808
1.1475329448258588805
1.1475536878612988545
1.1475808488510286232
1.1476193394979412599
1.1478159791303617077
1.1478462569916660918
1.1478308092857656408
1.1477509294104846216
1.1476234791843331617
1.1474906530490434076
1.1473942015815379314
1.1473556562756930255
1.1473711186008068719
1.1474201409359028325
1.1474766188861353911
1.1475150214207250343
1.1475112310220030309
1.1474463505235863447
1.1473163129802590454
1.1471429997825384195
1.1469730651326113247
1.1468604015475782898
1.1468369837126359823
1.1468929315860538765
1.1469854852023126934
1.1470694656383428889
1.1471227427134436105
1.1471503691390616542
1.1471723305864116593
1.1472026903361733918
1.1472401310459567902
1.1472752733546165427
1.1473004378155349237
1.1473151812110136127
1.1473217045228063515
1.1473152828416905979
1.1472888310348072771
1.1472450402921623436
1.1471990313688895657
1.1471680970600750538
1.1494231870583078159
1.1493086850821909728
1.1491650519391523044
1.1490051081516026166
1.1488404618161811577
1.1486811922410422593
1.1485337835228635051
1.1484000005408494527
1.1482790618792484416
1.1481703284314563884
1.1480711264329301891
1.1479850438800747181
1.1479114060032822309
1.1478580148651975623
1.1478253414453978287
1.1478196492998786749
1.1478392533324506264
1.1478746472484953056
1.1479280609639570532
1.1477654094229532422
1.1477968500561832599
1.1477658612962418072
1.1476658643359716194
1.1475223602013260304
1.1473801633598186278
1.1472813409902520299
1.1472452726287882818
1.1472645917159007833
1.1473130529193731331
1.1473561917755437101
1.1473602863859941881
1.1473010776367187358
1.1471749588643527229
1.1470072489441327512
1.1468514715334949816
1.1467713513405801695
1.1468057442476207175
1.1469407148783874462
1.1471143884156991266
1.1472521866864715534
1.1473083470346476798
1.1472881560305703275
1.1472358965035971412
1.1472009920276509121
1.1472093140509409537
1.147255384191770311
1.1473131534953819877
1.1473552487235592068
1.1473667381449585978
1.1473483444681720211
1.1473104501245687814
1.1472675132507028639
1.147235617233268723
1.149651993403667305
1.1496031424315547032
1.1495192251060917243
1.1494082625115122909
1.1492802603091023528
1.1491454134492495864
1.1490121948283373854
1.1488858080004524798
1.1487669377346758637
1.1486523730195044024
1.1485418200515875586
1.1484339289281064733
1.1483344890681617123
1.1482451125405472858
1.1481768418711086888
1.1481329216612501387
1.1481221909629064637
1.1481458880665595945
1.148195024156966948
1.1482702767880874628
1.1477089722931497207
1.1477856428859534166
1.1477984461073047484
1.1477184369759692029
1.147556979518949305
1.1473643255710854749
1.1472025116934365663
1.1471137050255542089
1.1471023800068516074
1.1471405510846126585
1.1471858931245531021
1.1471988154578314223
1.1471540110207907315
1.1470498804192599263
1.1469129559249302552
1.1467958870121297554
1.146758568851092619
1.1468391117042322502
1.1470263070426442997
1.1472520603326916699
1.1474219895679098613
1.1474706139872936639
1.1474000518669278392
1.1472735295617169093
1.1471740257032101429
1.1471548312386370405
1.1472144248230013996
1.1473087589661636887
1.1473825876659651257
1.1474010686385869295
1.1473643837663922707
1.1473016554382251542
1.1472465099183284387
1.1496750729788660639
1.1496257510193441664
1.1495534158074822706
1.1494654490635114463
1.1493694836949788218
1.1492713340224518515
1.149174384629497947
1.1490789128052349977
1.1489816788240829748
1.1488813020439188062
1.1487761272607113217
1.1486738203116440005
1.1485798436088530128
1.1485083071314774461
1.148465322015973511
1.1484606373281414093
1.1484969235703590407
1.1485661217126190703
1.1486658804376248533
1.1477547018208769103
1.147796171298690604
1.1477270649824451443
1.1475538352254817109
1.1473294497420429838
1.1471264372627714145
1.1470000970445888289
1.1469634225451350584
1.146988166044594637
1.1470284431291470906
1.1470473168316215329
1.1470275668984712958
1.1469718494476988102
1.1469006447895144785
1.146848559456838279
1.1468561300296871153
1.1469551612288491071
1.147143229996160585
1.147364732690958844
1.1475297337961254396
1.1475666959841204218
1.1474690008573544819
1.1473015860909610009
1.1471620994615181477
1.1471213935005999396
1.1471852272509914794
1.1472999850474117078
1.1473922443466257892
1.1474156947782856442
1.1473697637354971501
1.1472877188893664258
1.1472147949125026667
1.1496661100095584285
1.1496462325032117402
1.1496104773868047744
1.1495622479198284172
1.1495063612658389385
1.1494464810639739571
1.1493841561654571937
1.1493195019080435504
1.1492501425762899903
1.1491744005306048226
1.149090883967983201
1.1490073806667080447
1.1489307829756365553
1.1488766046827587619
1.1488527213547687911
1.1488683561327992511
1.1489254147645180382
1.1490148701647462381
1.1491315979246539136
1.1477146818538430662
1.1476552278642537797
1.1474922440563890547
1.1472743433246621603
1.1470709178963609531
1.1469362836791960891
1.146884084253847913
1.1468910013467727982
1.1469209560463278219
1.1469492999849599801
1.1469692495514400843
1.1469834220465493502
1.1469962078954942797
1.147014556286936493
1.1470546650094750607
1.1471367283195355036
1.1472689592199500908
1.1474275218603720017
1.1475516379648471599
1.1475790735331168335
1.1474930734918991071
1.1473409272582015817
1.1472058787083043718
1.1471539678259834449
1.1471951685986490066
1.1472858153623923805
1.1473644020568194435
1.1473901517673197326
1.1473579434172167524
1.1472912146935794198
1.1495925545323586459
1.1495785085404957027
1.1495595597361127904
1.1495378893889769412
1.1495154206574469402
1.1494925162460778445
1.1494681780514701686
1.1494395967232231559
1.1494069406571927328
1.1493701037778758511
1.1493357471120633218
1.1493087697871522401
1.1493010375375660725
1.1493191907308921706
1.1493682115192689341
1.1494476585590758244
1.1495457531580091093
1.1496572757207965676
1.1474575561222633002
1.1473474094763174147
1.1471915619790160612
1.1470368905763841383
1.1469252768781683649
1.1468748309039693556
1.1468768356638143757
1.146910491620887429
1.1469613994112828337
1.147026931496414992
1.1471065198681580366
1.1471896072244522902
1.1472584102489413738
1.1473039473082313755
1.1473371381917940592
1.1473789079899430199
1.1474384063719782478
1.1475001752867568516
1.1475311692111844764
1.1475051041843711275
1.1474260010740233717
1.1473274293924748957
1.1472501531238881167
1.1472191252353094448
1.1472333886048577956
1.1472720902094080131
1.1473111466210164089
1.147338669582040005
1.1495123214637534836
1.1494982619124685108
1.1494904542708108686
1.1494902202398324942
1.1494986152935569024
1.1495146462662955145
1.1495371036661512498
1.1495647725983915155
1.1495974538853801494
1.1496327291256480674
1.149673095296064762
1.1497191851909982496
1.1497764545163438044
1.1498460387247970704
1.1499277245443582096
1.1500188828008077735
1.1501071440830696879
1.15018820833733737
1.1471626717738279133
1.1471046329569825062
1.1470298141591916963
1.1469682163302477029
1.1469433519281675427
1.146962817989072736
1.1470206913516522995
1.1471075881513073114
1.1472155219996902353
1.147332563777264669
1.1474370529043651512
1.1475033328943373689
1.1475158457404714962
1.1474835561225014136
1.1474382261034337116
1.1474156197003266833
1.147434514198324873
1.1474827014055017926
1.1475222595162866135
1.1475138120872525604
1.1474417040589457439
1.147324283209931739
1.1472045349069730502
1.1471301614533957469
1.1471356241556434075
1.147225549108707332
1.1473659672379008523
1.1494504758985741866
1.1494442742508188537
1.1494576098639288642
1.1494908208911602809
1.1495426612256860466
1.1496119220152860585
1.1496961496055413399
1.1497935304645772181
1.1499005890941691455
1.1500155391168649377
1.150132778913451892
1.1502489752922941957
1.1503578652361869938
1.1504531529211015073
1.1505302606956777645
1.1505791210850364603
1.150600397905187755
1.1469328046994908821
1.1469852145553935951
1.1470118463899892092
1.1470184080938274906
1.1470245342017377777
1.1470516584327954401
1.1471129664816146487
1.1472101302486577001
1.1473347835998592981
1.1474700220502127568
1.1475899208449027444
1.1476654067260196879
1.1476756200503637206
1.1476204544920318718
1.1475252548406917885
1.1474326914959882551
1.147384460962390218
1.1473999220261241749
1.1474632861253202254
1.1475290854791253548
1.1475440061958659399
1.1474755506782978731
1.1473354462321985192
1.1471802335878060752
1.1470861021812552849
1.1471120799275837943
1.1472681679752012585
1.1494941886809895149
1.1495181350157173128
1.1495672065541899798
1.1496402088042791956
1.1497364900375581787
1.1498542656740811108
1.1499917025277839322
1.1501430808997736843
1.1503015512944263499
1.150455535281330377
1.1505939398744098323
1.1507052563165744985
1.1507803392254409847
1.1508172115570591831
1.150811819662599822
1.1507721301983944162
1.1468403225696013337
1.1468929015711104569
1.1469313438137318517
1.1469681117910059953
1.1470191671395741917
1.1470963542327461404
1.1472029364844589239
1.1473341152904836804
1.1474777032957226286
1.1476124646724967793
1.1477094792806834533
1.1477420361540646709
1.1477000171999616196
1.1476001937272539699
1.1474821863013684453
1.1473917247334461944
1.1473601224178748836
1.1473892387670558968
1.1474522260319368616
1.1475067045845628311
1.1475149964597812779
1.1474608441002467352
1.1473596527106906251
1.147257828838546212
1.1472148081401689623
1.1472740114161557035
1.1474391212173027377
1.1476686506112354635
1.1496577919737536178
1.1497052245114673941
1.1497724748915323367
1.1498617926076608597
1.1499735407329481074
1.1501067719604134432
1.1502548278031765605
1.1504078359784815078
1.1505513392747668266
1.1506707256980726051
1.1507545060522643698
1.1507945294957930837
1.1507922756319206581
1.1507495119900441605
1.1506788086865971099
1.1468722985410475523
1.1468959593558329946
1.1469252565180150238
1.1469849925249278044
1.1470855810743312286
1.1472205690738017658
1.1473738542700455678
1.1475237794676098613
1.147644487400895752
1.1477093610600854756
1.1477010988046534301
1.1476239885464771806
1.1475091522888618556
1.1474025899534632256
1.147343377672468856
1.1473449600438871965
1.1473919225746538331
1.147451898921280522
1.1474939529780674441
1.1475005911465432362
1.1474726302375277687
1.1474277119956970417
1.1473950766993685768
1.1474082815770010324
1.1474907072584332735
1.147637759143713021
1.1478123272845017766
1.1498028663238002434
1.1498509570286352677
1.1499179723929700003
1.1500074629491054967
1.1501199265016310846
1.1502484285354428462
1.1503813579089774422
1.1505024753643955382
1.150595843586170286
1.1506505332908438799
1.1506601393313047321
1.1506295843154361602
1.1505653730657767753
1.1504833890395793627
1.146871880549725109
1.1468795684594994544
1.1469255160650995151
1.1470258593991315976
1.1471718074636876317
1.1473362096085717443
1.1474840915509629813
1.1475832277527187042
1.1476118580482623788
1.1475662234787538107
1.1474678918897280866
1.1473606499945607773
1.1472914111275220872
1.1472851404096287009
1.1473337869885169571
1.1474057771990120447
1.1474688507023638184
1.1475072892903948052
1.1475238800121121407
1.1475318011350179592
1.1475447491492600793
1.1475750461596094798
1.1476323820935165898
1.1477188074168303
1.1478234132687332725
1.1479200090589378735
1.1498503305150025167
1.149885330650494808
1.1499430775636652058
1.1500259889112005585
1.1501279538249218337
1.1502363007440201681
1.1503343905371763434
1.1504049737637207507
1.150437127669490911
1.1504262075035518453
1.1503800106865857966
1.150308742947985019
1.1502300668276310702
1.146818009196982624
1.1468394768899858871
1.1469234335679392434
1.1470642518120193198
1.1472291943705372752
1.1473722971385700298
1.1474523600439030524
1.1474494039155860303
1.1473743387074066824
1.1472681397651249835
1.1471848453229571696
1.1471665590203414808
1.147221775575469227
1.1473232076843062899
1.1474277695398769072
1.1475053795732557127
1.1475539752398977722
1.1475911091029653566
1.1476351283626271549
1.1476931589166055048
1.1477620382525770548
1.1478345067053739026
1.1479014878967914726
1.147949218723900211
1.1479617763781757578
1.1497626909010030261
1.149790212284722557
1.1498449962322088158
1.1499216980318194281
1.1500072055579244612
1.1500849894832489984
1.1501381615159997907
1.1501578923796846876
1.1501402089279471053
1.1500938520003665122
1.1500315429207352835
1.1499696817751661193
1.1467239827206727742
1.1467852474821240705
1.1469113216907429464
1.1470691394963530296
1.147205841697337414
1.1472730434234674757
1.1472507932077509185
1.1471608779159530034
1.1470590626531353973
1.1470067275929105577
1.1470394852286751597
1.1471511363541087025
1.1473009443759278891
1.1474408858382358911
1.1475445913994224423
1.1476178722976002611
1.1476838214403453087
1.1477591400828328627
1.1478425849888698185
1.1479204399156517358
1.1479775350055816396
1.148002297068558164
1.1479862569274297268
1.147924744953283005
1.1466284564898256981
1.1467367462093629449
1.1468818446096959995
1.1470087184396129398
1.1470668629183979892
1.1470389555815923011
1.1469526923109867322
1.1468681656806816171
1.1468469058879660061
1.146920132896856126
1.1470737916336732898
1.1472609438023666506
1.1474335105211945773
1.1475695796487097589
1.1476775275866242243
1.1477772468606062262
1.1478772724588710563
1.147966977104712738
1.1480266272230224001
1.1480423921151154953
1.148011158393821507
1.1479351418496190895
1.147817049772711151
1.1466829673245158006
1.1467953363896212782
1.1468462387202840169
1.146823187246536202
1.1467553036962998547
1.1466985511244605078
1.1467075137450548628
1.1468081764095372499
1.1469857413956181524
1.1471960628181934183
1.1473953834711474453
1.1475648148141117666
1.1477097448649860034
1.1478409566071461345
1.1479556564921811201
1.1480352539911793386
1.1480591743907408997
1.1480225418431979634
1.1479357655062307764
1.1478108554040744593
1.1476545267473063916
1.1465750538890935317
1.1465496111536517265
1.1465860113842576418
1.1467045156540336404
1.1468912938093829279
1.1471105024668053485
1.1473268454894873791
1.1475227363314408624
1.1476973208143093075
1.1478505318399121471
1.1479686461765292727
1.1480280473521571327
1.1480135911198925402
1.1479293994669255152
1.1477969703755346309
1.1476377351562281337
1.1474595975553893989
1.1467860000433889311
1.147005366129512538
1.1472278801891775402
1.1474366746339759171
1.1476253815560999438
1.1477853871844201361
1.1478964459178677693
1.1479344783221117066
1.1478882762356976688
1.1477707642445200698
1.147611273326417658
1.1474354085926552482
1.1472506019243562392
1.1468851888746993684
1.1471013106436829254
1.1473081682252761482
1.1474944370911468461
1.1476464062440381309
1.1477412527929315988
1.1477574967881758461
1.1476894578274243752
1.1475567647388542625
1.1473913741163257463
1.1472172975131611494
1.1470401271313566127
1.1480320866167590399
1.148393796005355183
1.1486507713443303569
1.1488393678686568133
1.148985376505995637
1.1490984884051416159
1.1491865960860736529
1.1492529833374600656
1.1492915779169801116
1.1492834056467018389
1.1492137787343370547
1.1490967700903986781
1.1489750601029775634
1.1488938109326332082
1.1488653956461296612
1.148858924885021171
1.1488232085776388658
1.1487267023970566537
1.148580924288959304
1.1484239733274292927
1.1472685036815595261
1.1478463089384307594
1.1482906302193156556
1.148601388790197575
1.1487991791983716006
1.1489276942461410513
1.1490339075740900743
1.1491474295973038711
1.1492688796151362407
1.1493691100925347293
1.1494024000289815302
1.1493430619816171756
1.1492151194054780472
1.1490813781842323937
1.1489995182327967793
1.1489788634849993354
1.148975066970146397
1.1489291026186043698
1.1488141028614964334
1.1486522465964323914
1.148490283858333072
1.148356303483452967
1.1455170910895258185
1.1462761553435500961
1.1469683059040662876
1.1475878861562496258
1.1480924215373853325
1.1484494638492277474
1.1486640080577787959
1.1487921644765775042
1.1489127984042588615
1.149071966780177867
1.1492650902958212455
1.1494354799786159482
1.149511139126073278
1.1494601012873020274
1.1493189142364668154
1.1491721047027674274
1.1490899208383162922
1.1490782570231201642
1.1490785390763573748
1.1490216948470339808
1.1488849162717089669
1.1487017204875835663
1.1485286013389317539
1.1483973331590131561
1.148295224919816615
1.1481797073737558534
1.1446900658504770565
1.1454824584585714398
1.1461894129605121329
1.1468521241206097727
1.1474723431849489508
1.147988499645040239
1.1483381843966076197
1.1485181893270544062
1.1485984600890226659
1.1486867169799914734
1.148851464288862978
1.14908224902825018
1.1492982081883413858
1.1494051706793226852
1.1493623969961968001
1.1492156690732990842
1.1490659011508868037
1.1489921918467131956
1.148994395891596465
1.1489996087307028372
1.1489291632894491624
1.1487645090478710852
1.1485517306180217378
1.1483578845153241677
1.1482200251884842057
1.1481245503722670165
1.1480236518329143269
1.1478659363653314074
1.1457478266408591683
1.146413173465960611
1.1468890111339737903
1.1472407558176054287
1.1475639246540614291
1.1478877246468144335
1.1481513195579213793
1.1482729749718765255
1.1482450159997341643
1.1481495596945612281
1.1481126773622383208
1.148213700771048229
1.1484289181056495099
1.1486475879131612388
1.1487505989106161497
1.1486895193711936791
1.1485205801803473058
1.148360182961764453
1.1482953788151000207
1.148316360018608151
1.1483314039839278564
1.1482479174343509509
1.1480465702546500673
1.1477847996220529314
1.1475427091381178446
1.1473680104233945354
1.1472539751472865532
1.1471549431869647595
1.1470164582740083326
1.146797604286154737
1.1471238210665899437
1.1474040448635687284
1.1475420555217210605
1.1475131798169120323
1.1474190462433748738
1.1473852499770111901
1.1474443621173948671
1.147515534083276556
1.1474852200784755318
1.1473254205604432876
1.1471231037203943881
1.1470114416957020165
1.1470790532037147269
1.147292793630360741
1.1475196875952122788
1.1476215433475094319
1.1475441395170780101
1.1473524661899781041
1.1471749599810303621
1.1471049116157834291
1.1471255399629001204
1.1471322761517710465
1.1470267052889377979
1.1467936022942060159
1.1465027438102286528
1.1462449607067444202
1.1460722057575589705
1.1459762083122964071
1.1459053543902104622
1.1457954824643314939
1.1455946635466116579
1.1452834326507368434
1.1464576063424161134
1.1466387768409811443
1.1466800945699966441
1.1465521749525635631
1.1463703562948039938
1.1462767655388248489
1.1463062951077391816
1.1463619690989186317
1.1463098516586998077
1.1461113455932652183
1.145865259526039015
1.1457239463973762916
1.1457875130670300834
1.1460231837021612744
1.1462803958845628749
1.1464023640416545202
1.1463278773263136934
1.14612811619687327
1.1459440156612057393
1.1458759220256986566
1.1459048057529139797
1.1459158363413677328
1.1458046700213389002
1.1455574925853126977
1.1452513760098055329
1.1449843393577268102
1.1448104073373697176
1.1447200880204637663
1.1446591097363241207
1.1445591486933048841
1.1443632603658806524
1.1440491527615817002
1.143647226148844398
1.1419593228948026198
1.1417627126355298639
1.1413187011615983923
1.1408166651717730478
1.1405319267678495354
1.1405094453879687233
1.145091205511132193
1.1452806070427887786
1.1453145572783731687
1.1451654699995252873
1.1449630257776794995
1.1448629678277915112
1.1449036820737643616
1.1449753272412379612
1.1449293332557510805
1.1447223010199192306
1.1444603171904748073
1.1443123442547333823
1.1443845181154737034
1.1446447898893548079
1.1449294189867300631
1.1450668913987638309
1.1449946928376093513
1.1447915617377171227
1.1446105992680370989
1.1445559215822476151
1.144605408723667006
1.1446333170085019049
1.1445283310404790189
1.1442786098942903106
1.1439674557106322972
1.1436995554005906506
1.1435311254783284696
1.1434518188886089174
1.1434055758335261999
1.1433209501218455362
1.1431369672385920389
1.142828757957150998
1.1424272477440982065
1.1420098300022711868
1.1427175096556372313
1.1425320302984018905
1.1422652861091062704
1.1417538863399854243
1.1411777509879361681
1.1408256025954401913
1.1407417461141420301
1.1436401840269632135
1.1438429965331129434
1.1438794373929259685
1.1437267768116612388
1.1435198753908628611
1.1434227312704527968
1.1434751518665959846
1.1435598900755858942
1.1435204222555828135
1.143311515398362177
1.1430427900841906297
1.1428917368550981504
1.1429712243544349892
1.143244774167808453
1.1435476196732690113
1.1436975544761327495
1.1436315522597395589
1.1434309664931749939
1.1432532200086613638
1.1432043994044374102
1.1432622333082942401
1.1432967284142203646
1.1431936206185999705
1.142943106399865405
1.1426302364932281463
1.1423621144278721662
1.1421958841441890442
1.1421210530133121264
1.1420814591688952522
1.142003993073480661
1.1418248205275167706
1.1415173502725037835
1.1411140051984347554
1.1406944254109967485
1.1403390471827867803
1.1478393134295994393
1.1479040558179878229
1.1479609274050330825
1.1480019891966311008
1.1480122792300730961
1.1479895244373983232
1.1479255510931667406
1.1478262514007986361
1.1476984331080253288
1.1475437898137434978
1.147383937079659022
1.1480256515414266616
1.1480789980254475502
1.1481447276587353201
1.1481747739955325827
1.1481378481173756256
1.1480338558298543994
1.1478867906185397096
1.1477299105551150848
1.1475963671849926939
1.1475152819708824836
1.1475042503301546848
1.1475594485643325626
1.147645797328499917
1.1477086749365794649
1.1477035484396305165
1.1476194815415377004
1.1474685510627971041
1.1472818792041072911
1.1470928971116438611
1.1469257802937755653
1.1467948456880532326
1.1467056591497868379
1.1466569446757588491
1.1466421602060865581
1.1466561226067757406
1.1466987800219061722
1.1467717263841554765
1.1468673833564599907
1.1469599112714914391
1.147009134475311054
1.1469825611498838391
1.1468822027274594433
1.1467539689060683994
1.1466674648539580961
1.1466763650317921552
1.1467840879073016858
1.1481843762367633932
1.1481459404284313219
1.1481225109265242867
1.1481078912074946796
1.1480992115289010425
1.1480960482298325775
1.1480997863063926445
1.1481114903511191461
1.148131831246417045
1.1481595601518606031
1.1481905475559581742
1.1482209407078354246
1.1482434724265941917
1.1482556638001777394
1.1482477957818206793
1.1482194704914847616
1.1481619166290959466
1.1480781954526046995
1.1479713700201596982
1.147840589148655166
1.1477032770165174203
1.1479345362670054786
1.1479878985229035049
1.1480741796106614938
1.1481457707440678728
1.1481587120912226663
1.1480941788704261963
1.1479627567109371711
1.1477951778600672395
1.1476355694399424934
1.1475270709833267357
1.1474949985703095656
1.1475331874026908352
1.1476034832897279436
1.1476502648093629411
1.1476324216920301691
1.1475440689029152708
1.1474095357147386931
1.1472663044657964715
1.1471410422196990364
1.1470425127520094133
1.1469673806926541371
1.1469091142815674988
1.1468633383388713298
1.1468286749107525768
1.1468085345662695218
1.1468106827496697964
1.1468405425743370962
1.1468899781589401154
1.146930237486012194
1.1469201880272590355
1.1468311250986016336
1.1466731866496719938
1.1465036555281711284
1.1464040466910501159
1.1464350832163066052
1.1465979872069442802
1.1485366805701238135
1.148517481822523445
1.148513270051256141
1.1485177314700121265
1.1485257422890031709
1.148534145382487992
1.1485417183443855649
1.1485477951176676914
1.1485524686230166314
1.1485560978729381088
1.1485573355673124318
1.1485557602965383861
1.1485479267115574764
1.1485350249403281087
1.1485115024473966372
1.1484792597226523014
1.1484296138252396702
1.1483631494486832292
1.1482784112811914579
1.148170723661977588
1.1480534612174979614
1.1478330369849580883
1.1479180923561298489
1.1480186218001606768
1.1480802057224597235
1.1480616220610491141
1.1479557964312001594
1.1477912333494795227
1.1476179656510179239
1.1474894284208136952
1.1474368480276795346
1.1474551190905344367
1.1475073237602131382
1.1475429550659939082
1.1475248664853248126
1.1474521182648778073
1.1473560516184628799
1.1472731202963386554
1.1472206440417305195
1.1471938596169839464
1.1471766909780027888
1.1471529728651661539
1.1471149293882261233
1.1470623758424032257
1.1470027335557531067
1.1469495891320105052
1.1469168908415856567
1.1469032677626054273
1.1468839753196697906
1.1468203133464462962
1.1466857415120441654
1.1464935870285317687
1.1463033957487593906
1.1461985009969575255
1.1462429627354904227
1.1488992762946570458
1.1489129538680979969
1.1489339787247558888
1.1489557454032404138
1.1489739680076251904
1.148984714503442417
1.1489860520419761247
1.1489773914854510828
1.1489597352360574334
1.1489355174188198294
1.1489084421451907225
1.1488787154552233538
1.1488497657297873644
1.1488173962838377218
1.1487831825226797466
1.1487388690095683419
1.148683700441595068
1.148613310195131243
1.1485213143428210092
1.1484185225511356343
1.1476197642355412398
1.1476752658677400465
1.147779219759457181
1.1478753654213080804
1.1479067455509146534
1.1478454190924234357
1.1477082881406170944
1.1475433841188897865
1.14740721209865848
1.1473385973793057691
1.1473381560220836661
1.147374416882972481
1.1474071424464864499
1.147409501849899538
1.1473822148978445323
1.1473472171494782934
1.1473283608220770091
1.1473351474974964326
1.1473593733418301355
1.147381601388379968
1.147383077674784424
1.1473522494499774904
1.1472867482409712103
1.1471925062639130033
1.1470867229740508986
1.1469911773150862633
1.1469153508313665313
1.1468453478547533386
1.1467480503386386914
1.1465963866172763641
1.1464007434865897128
1.1462151177191572948
1.1461159422051288015
1.1461635759400661261
1.1492734469561052268
1.1492989128611235117
1.149329967537861652
1.1493604441904172742
1.1493845659093733236
1.1493977636438725831
1.1493972010242976545
1.1493820084747530252
1.1493540947329989876
1.1493163106487116476
1.1492754368336006721
1.1492337202305651367
1.1491962980134784456
1.1491597309898087254
1.1491247676825049329
1.1490824716513283743
1.1490311682198506293
1.148965676330300445
1.1488796745794020993
1.1487849462276420454
1.1473764382066691248
1.1474471625978182043
1.1475508021333813424
1.1476261487733012689
1.1476258905745502226
1.1475435864117418117
1.1474134177869210749
1.1472867705618046141
1.1472065813526344247
1.1471885943129114249
1.1472201110996851359
1.1472745347232093938
1.1473280971431216724
1.1473697192490319718
1.1474024969898348747
1.1474349913520467403
1.147471551928568978
1.1475090012956943308
1.1475393912077815894
1.1475501834453292194
1.1475255315928796218
1.1474545694352173975
1.1473387657473128609
1.14719543077479047
1.1470510160083731144
1.1469272730475936761
1.14682434026067126
1.1467186072325126212
1.1465854982222576375
1.1464247577240653797
1.1462737064180965607
1.1461950207702533699
1.1496588530236657721
1.1496894962377637306
1.1497179580569851787
1.1497401220162382085
1.1497522102930188836
1.1497510726665842729
1.1497356633903941248
1.1497077726356488281
1.1496704254533645084
1.1496291742587905205
1.1495864126750086065
1.1495468871071059525
1.1495072600589253398