/*--------------------------------*- C++ -*----------------------------------*\
  =========                 |
  \\      /  F ield         | OpenFOAM: The Open Source CFD Toolbox
   \\    /   O peration     | Website:  https://openfoam.org
    \\  /    A nd           | Version:  12
     \\/     M anipulation  |
\*---------------------------------------------------------------------------*/
FoamFile
{
    format      ascii;
    class       volScalarField;
    location    "0.00514";
    object      T;
}
// * * * * * * * * * * * * * * * * * * * * * * * * * * * * * * * * * * * * * //

dimensions      [0 0 0 1 0 0 0];

internalField   nonuniform List<scalar> 
106891
(
298.80129542131601283
298.79251224148970323
298.78599033390486284
298.7809818888075597
298.77861371185912276
298.77749949245776406
298.77873622020933908
298.78094179842486255
298.78333914068474542
298.78729317190590109
298.78800672400603844
298.88812213493457648
298.88945847577292625
298.88723634486524361
298.87849784274925469
298.8636530297926015
298.84694646403619345
298.83403192426686701
298.82881414409933996
298.83161754790523901
298.83976690300426071
298.84929941932381325
298.85685285557383395
298.8605298660448284
298.85927154404663497
298.85238962345380287
298.83988356568443123
298.82352635335269042
298.80653809644189778
298.79186445716084108
298.78092101930576518
298.77337912873639425
298.76833962024409175
298.76562568041657642
298.76609260441972538
298.77073409425588579
298.77905702030091106
298.78857555466953499
298.79607175078353976
298.79976136055336156
298.80042948880685572
298.80006028917267713
298.79966865600607662
298.79855933794760858
298.79519783618746942
298.78912160187246627
298.78192720304855357
298.77649066874016626
298.77496739679435223
298.97588398488579742
298.96436704307399168
298.94930574362007292
298.93184583441319546
298.91335603088947437
298.89498581015004675
298.87770370164520273
298.86206400392489968
298.84831240552398413
298.83666791887878844
298.82675051724436344
298.81901301667267035
298.81265306674930571
298.80879095387433608
298.8062243360588468
298.80609665999116942
298.80734410617424146
298.80933377366892501
298.81330051079646637
298.8143646872665613
298.87827278484451199
298.87938564990321311
298.87431594904234089
298.86232204923504696
298.84686650461196677
298.83342130716835072
298.82628042639345267
298.82645226182233955
298.83192297056820053
298.83954016595879466
298.84649974188698707
298.85048322996021852
298.84966047168501291
298.84259933273852994
298.82912933886535711
298.81129098944927591
298.79308903806060016
298.77886458269961167
298.77112201950825465
298.76933640561617267
298.770997639892812
298.77400672470531617
298.77794277479199536
298.78353057828161354
298.79091146420313407
298.79879304130270157
298.8050967004614904
298.80836327817507936
298.80895363671459108
298.80852128409048873
298.80809112164462249
298.80700066230406264
298.80387642969367334
298.79847566920585678
298.79222654535089987
298.78734986864697021
299.01320955396749923
299.00321648331811275
298.98919479113646958
298.97235809832108089
298.95400099348972844
298.93552263027288518
298.91795132523623124
298.90191441300834185
298.8876450825062534
298.87526295142089339
298.86436545155606836
298.85531176850912516
298.84735309292358352
298.8416544297875248
298.83727285261670659
298.83552474492410056
298.83566191151516023
298.8372132864857349
298.84141041957070684
298.8434837066779437
298.86513326728913853
298.86901137474490042
298.86806733762153954
298.86021884924815595
298.84713426392141855
298.83322858118742715
298.82298166002988182
298.81880126856844981
298.8204159368841033
298.82573936692710959
298.83198452583258131
298.83634061007836635
298.83611976467835802
298.82922324770481737
298.8152066879956692
298.79646067299063361
298.77806069866767302
298.76585833206286225
298.76337062318765447
298.76959596739959579
298.77992324890573173
298.7893804911059874
298.79544184220054603
298.79856138221572337
298.80087606580366355
298.80395476753318462
298.80770701630490294
298.81110012288104372
298.81322850216963616
298.81401747214761144
298.81383321626185534
298.8124276430830264
298.80925956381264541
298.8046699870789098
298.80016800267941335
298.79739590481358391
299.0334029832783358
299.02159697261555493
299.00680328037441313
298.99033115056596444
298.97339063362250045
298.957010926232158
298.94182784504613437
298.92794275284688865
298.91540898836058204
298.90373492282890311
298.89338235577611158
298.88368324665088949
298.8759633186007818
298.86956199025360092
298.86612759458910205
298.8652609161960072
298.86669631010090598
298.87165121189735828
298.87545338077472934
298.86006822619947343
298.86395919866509985
298.8612607831108221
298.85120377093727484
298.83641989410324413
298.8216238540819063
298.81131185053590116
298.8076295265515796
298.80987310073419394
298.81526868113559203
298.82009718174879254
298.82066906466110368
298.8143229625436561
298.80066560536209863
298.7824532581238941
298.76547080365753573
298.75659430011199902
298.76005630074274677
298.77443103183463791
298.79313351880614391
298.80816453737133997
298.8145351104491283
298.81267302513589357
298.80720331545694535
298.80335465213397583
298.80388257093937909
298.80822566304254906
298.81365988288530389
298.81737194593830509
298.8179202195688049
298.81556279636424733
298.8115188032419951
298.80731958021613082
298.80451631481082586
299.05740843979981491
299.05240482951518288
299.04374753752352945
299.03230589260715533
299.01910536806332175
299.00522129860860332
298.99151347490965236
298.97849528347205705
298.96615087430728863
298.95427321987426694
298.94239333811918868
298.93109057478022805
298.91998046959662361
298.91054692456845032
298.90260631384745693
298.89793343627286504
298.8965508764729293
298.89842320944717358
298.90469256693251054
298.91098216812457622
298.85110692355010542
298.86026560876052827
298.8627594886895622
298.85542884281767329
298.8393404756039331
298.81969258016437152
298.80302647157731144
298.79387889693487068
298.79285630549014741
298.79709770373239053
298.80213573723483478
298.80370432062579766
298.7990051735025645
298.78779009349108264
298.77288663327789209
298.75996094061741815
298.75546193161619613
298.76350069493230421
298.78297316574850129
298.80675343504583452
298.82487774915756518
298.83036027410059887
298.82328358648635458
298.81016981020633239
298.79967217793631562
298.7973882537826853
298.80321721253994838
298.81264579322294139
298.82000592915380821
298.82173409805795927
298.81789263095595288
298.81156178574138949
298.80622108962404582
299.06024819308356655
299.05509529572810834
299.04757239241769184
299.03843209373764012
299.02850000567383404
299.01836567479489304
299.00835622339656084
298.9984104600360979
298.98832480813672419
298.97752751458551757
298.96652159086573874
298.95516306992641375
298.94522756102946914
298.93701444790337973
298.93240378252079381
298.93169265621577324
298.93489398542084245
298.94312667989441934
298.9522236439386802
298.85896955997725399
298.86429448921177254
298.85798580370465061
298.84054704027067828
298.8174019974813973
298.79610632218668798
298.78254292124069025
298.77828367816005084
298.78059330401777061
298.78476362890700102
298.78686163323197889
298.7849114895689695
298.7790188414156205
298.7712554132705236
298.76529575094110669
298.7654910878044916
298.7752803528419463
298.79453432803535406
298.81754552430186322
298.83495900262960276
298.83925261940316886
298.82959178186285953
298.81255966172045646
298.79820974160838887
298.79391155869546992
298.80035912728283165
298.81209987442008469
298.82158176503605773
298.82402995942578627
298.81937904479110557
298.8110432524135831
298.80364841652976793
299.05975212303428634
299.0575561700519529
299.05371298671877867
299.04856876777120078
299.04267757684266371
299.03639897553119908
299.02989327805715902
299.02308138104115187
299.01585613870059888
299.00764198932756699
298.99892878180526168
298.98964578649992063
298.98158080069049447
298.97533162874862001
298.9727342086181352
298.97423907028672829
298.97965959512350764
298.98990818128663705
299.00107411592694007
298.8560204900919075
298.85062082032959552
298.83421104519754863
298.81170442068690818
298.79024636359616807
298.77556868351962294
298.76933038282487587
298.76940114367209844
298.77224072809690369
298.77532460121955182
298.77780778299586473
298.77971364362468876
298.78128204133446388
298.78314326494313491
298.78700092168816127
298.79505402886110232
298.80831929058359719
298.82453342045602085
298.83753628944765524
298.84083968816617016
298.83251760859320711
298.81724253956747361
298.80349470103766407
298.79811216101745686
298.80223333126713214
298.81145765069464915
298.81948978594857635
298.82212311063409516
298.81879137342139074
298.81183902204810465
299.05228143204396929
299.05062713571913946
299.04842480881427491
299.04596488229287843
299.04343181267142882
299.04089182307387773
299.03816556528443016
299.03511883940080907
299.03139722948770896
299.02757681093578412
299.02357117949867416
299.02079796066806239
299.01963966051977195
299.02152923063073331
299.0267064260175971
299.03459179436214299
299.0457001570397324
299.05663420952981824
298.82996078504464776
298.8190511723413465
298.80322676838653706
298.78716439511777025
298.775120055410639
298.76908097889133842
298.76844560985438193
298.77141125196493476
298.77669131124628166
298.78397200311337656
298.79295891312506228
298.80223832941334194
298.80969304830324518
298.81427363461278901
298.81718570918206979
298.82083397190717733
298.82645685372051503
298.83265662136398078
298.83605429019365829
298.8337872408359317
298.82601988134211979
298.81602401153594428
298.80797066097937886
298.80454195502312587
298.80579930058127047
298.80969452350205984
298.81372273602966061
298.81655877153843903
299.04409777251817104
299.04243551904090737
299.04135500840538953
299.04105125600113979
299.04161367398126004
299.04300183803599111
299.04501738082399243
299.04773033128293491
299.05082225007618035
299.05456590601744438
299.05855192006447396
299.06357094392342333
299.06951512010169836
299.07696436123541162
299.0858066755469622
299.09509507650540172
299.10515013624166158
299.11319605110764996
298.79840765069928921
298.79315778308074414
298.78599917968335831
298.77980212247280178
298.77694502830070178
298.7784092378564651
298.78392560742503292
298.7928183229268484
298.80434656102124791
298.81710446645172397
298.8285179242770937
298.83561005210532358
298.83661792804821289
298.8325531785280873
298.82696503604609006
298.82386743991969524
298.82545643245759948
298.83055248695097816
298.83508957663264027
298.83471203497009583
298.82754627971678474
298.81539815225482926
298.80279520648360858
298.79483520984200595
298.79522821148771072
298.80453792593436901
298.81921485342792266
299.03754493988026297
299.03667677453307761
299.0377897139869674
299.04088665073112452
299.04593956735857319
299.05276724543398359
299.06133853142785028
299.07121499737530712
299.08248810242116633
299.09444743911581099
299.10704733339866834
299.11944896354452794
299.13118559450805378
299.14169521069521807
299.14971305060316809
299.15562671650098991
299.15766538444910339
298.77417588872384613
298.77980786395926316
298.78301172978592604
298.78419996147232496
298.78517983189169627
298.788029253199511
298.79414919684001006
298.80390575511228235
298.81665726166147579
298.83077146316611561
298.84349462593331737
298.8515775322251784
298.8525815123623488
298.84634408554592255
298.83556971065229391
298.82496934722013293
298.81923416971028473
298.82064373129799151
298.82760460443466854
298.8351960264403715
298.83754180359773045
298.83094654887787556
298.81646575418852763
298.80003723919378444
298.78980674522114214
298.79216228357461205
298.80829629950125081
299.04193747060219266
299.04425106068669038
299.04906528586485592
299.05637637905118709
299.06605877965984064
299.07816628186179742
299.09231072781057037
299.10826755338632665
299.12494617587100265
299.14147993614182042
299.15641842758702751
299.16850386597207034
299.17702993301884362
299.18095410428225023
299.18106143126112784
299.17684881587757673
298.76410959747505558
298.76994196935726222
298.77435718241099494
298.77860056648228237
298.78422888786064959
298.7923979623434434
298.80344950400848347
298.81696283806041947
298.83179087784219519
298.84581584731131443
298.85601131933265151
298.8594467127727512
298.8548545293961638
298.84383390290804527
298.83055479577922142
298.82004696722168546
298.81597051212094129
298.81884640390603636
298.8259420304434002
298.83260693500517391
298.8344961213549027
298.82951879346035184
298.8190767409365094
298.80806380799560884
298.80292827357641272
298.80850303186349493
298.82540286577284405
298.84939015512185279
299.0587677449725561
299.06356074443061743
299.07043685636324426
299.07954905816336577
299.09116814379882499
299.10502173821237193
299.12069229252233526
299.13690171214767588
299.15231362685545946
299.16528851801461997
299.17441071926151608
299.17920705690710292
299.17901728208079248
299.17501871412497394
299.16761523362458774
298.76664556790768756
298.76949502725085495
298.77287684552146629
298.77932589720165879
298.78992486523469552
298.8040320513702568
298.82002650994706983
298.83572131869408395
298.84846774148269333
298.85547237228081485
298.85481749778335825
298.84675662390719708
298.83436391056443426
298.82242985419861725
298.81524780169348787
298.81459428303503501
298.81919890902639736
298.8257890718721228
298.83093435231859303
298.83242625942295945
298.82999600345812041
298.82531726046732956
298.82150087590969179
298.82227309699413809
298.83034880465925198
298.8454597135623203
298.86380207592696934
299.07382519486151295
299.07886776805810314
299.08582246341075006
299.09527111363536278
299.10709915354726718
299.12078322925674456
299.13495538532743012
299.14797108136190218
299.15818678557582189
299.16414234190858679
299.16563399624652675
299.16242057549322908
299.15597421239090181
299.14740459486711188
298.76679342993116961
298.76789918628139731
298.77284092190808451
298.78334280120930089
298.79857458200348219
298.81578609131673829
298.83138315515242311
298.84202480971441673
298.84542306434502734
298.84108614438167706
298.83107747331831661
298.81977822853320959
298.8120379127420847
298.81062717726916844
298.81501039604250991
298.82216174144934939
298.82878536095228128
298.83309180542795502
298.83509421783674043
298.83593475298755493
298.83698346517809341
298.83963744780106708
298.84511942362280479
298.85384148750978284
298.86476853900342121
298.87515820861926841
299.07892649354715786
299.08268616255423922
299.0889503261633422
299.09781272926505835
299.10875844124444711
299.1203999123940207
299.13093604750486065
299.13871821382338112
299.14219599576483688
299.14140372992108041
299.13648809868590206
299.12910921932598285
299.12090392557070118
298.76085579505831902
298.76318700772179682
298.77190065086040249
298.78652602918919001
298.80376312404968075
298.81889097270516231
298.82763155751842987
298.8278619910425391
298.82061033669407379
298.80997984825256708
298.80144766312724869
298.79935092659138718
298.80468635772120933
298.81482084356417772
298.82543519055252546
298.83341002961742561
298.83839618356512347
298.84205103536015713
298.84620247398612491
298.85165739979026966
298.85826381980018596
298.86546000720625216
298.87243018180282661
298.87775329544831493
298.87965638614468844
299.0699752040641215
299.07315676888919143
299.07916095690762859
299.08749013651294035
299.09677776764033297
299.1051311428341819
299.11103562485391194
299.11310811118590891
299.11149864448788094
299.10653299835809094
299.09993939475742764
299.09353707428601865
298.75122371059796933
298.75750169204491158
298.77052343266802836
298.78694044724522882
298.80130546166623162
298.80859230130073456
298.80668170859786414
298.79775563869196731
298.78751998439884119
298.78229223870022224
298.78575810581332917
298.7973292167685031
298.81286596572113012
298.8274226693208675
298.83820062418760699
298.84567565968984582
298.85214928896510855
298.85936648658741888
298.86732801761394285
298.87480979308088536
298.88042536130257076
298.88306647120697335
298.88182366751624386
298.87609094104504948
298.74060427279425767
298.75184319685246237
298.76699877501505398
298.78032930475927742
298.78653190369863069
298.78375772522036868
298.77486701973032268
298.76612110055265248
298.76394675809711998
298.77163389667992988
298.78777213136220325
298.80750594166147494
298.82579660510248232
298.8402531569237226
298.85160481280922795
298.86182892812860246
298.87182560755979921
298.88060741095779349
298.88629328202529223
298.88760425710597701
298.88432052295229369
298.876692877047617
298.8649342948137928
298.74706457933609727
298.75891558310189566
298.76422889577440856
298.76164517761770867
298.75424089474341827
298.74795438930260616
298.74858562781980709
298.75893565791005813
298.77752137379741271
298.79975191895050557
298.82100850963166749
298.83920375792058621
298.85475353956525169
298.86866001435748785
298.88059271511934867
298.88866170149213985
298.89082422090871205
298.88669152587431199
298.87748410852344705
298.86453641212887078
298.84853180916417159
298.73476721417193858
298.7314975308398175
298.73481075644707516
298.74692664305257495
298.76645423519795486
298.78965975369118269
298.81281524997160659
298.83398050697445569
298.85292456852812393
298.86950217020370246
298.88218525246611534
298.88848264600784432
298.88685658960821456
298.87785337303790811
298.86385054235353209
298.8471884269681027
298.82871573173133584
298.75518262899487354
298.77848300514904167
298.80238295455433217
298.82503544103406057
298.84563628474114694
298.86312441451531186
298.87525424100346072
298.87945267410816541
298.87459042731205727
298.86212734183675366
298.8452742428760871
298.8268284878544705
298.80755536269140293
298.7657509829598439
298.78914901880312982
298.81174805493583335
298.83221696307180082
298.8489444358949072
298.85939817280365105
298.86128986356641235
298.85408989272389135
298.8399978524368521
298.82253069788475841
298.80427043378170993
298.78576616886095962
299.02735891555050785
298.92129978129810297
298.84063567039061127
298.78260487021685776
298.74359319586619677
298.71897311491159144
298.70480151751144149
298.69755198989679457
298.69358517280403476
298.6886183233204406
298.6792658734084398
298.665449438259202
298.65030067071410258
298.63754258244506445
298.62806899323322796
298.61906271712621219
298.60645499523576518
298.58882877092923991
298.56938446623252048
298.55367415448824886
299.24467413145788441
299.09215150299951347
298.9698430412450989
298.87391683694295352
298.80091194899711127
298.74899039651324983
298.71655411431015636
298.7005461884867259
298.69577296287161516
298.69526933830456983
298.69174475261434054
298.68113413582813109
298.66512209521454224
298.64943769965452702
298.63894081059112295
298.63329402335369878
298.62689503901953003
298.61353392162737919
298.59159769640547211
298.56570274336155535
298.54351633086548645
298.53029816360879067
299.73961321978299566
299.52372403664992362
299.33268454713737583
299.17238174449681765
299.04030643891024965
298.93148031989079527
298.84243580934770534
298.77364515326485161
298.72754131458719939
298.70338644845389808
298.69588962071662763
298.69546580377971168
298.69205525298127668
298.68061241506677561
298.66357325059567529
298.64825946879273033
298.64017867308166387
298.63798933751820641
298.63400590213620944
298.62041538992644973
298.59565191039291676
298.56542677910999828
298.53869374596393982
298.5216879825955516
298.51483037510075746
298.51354961244209107
300.00183444541102062
299.77599751728627098
299.55987495191590142
299.36958858695385288
299.21220256837949591
299.08367204851316501
298.97616297998928303
298.8855324859877669
298.81370240600068655
298.76593112242335337
298.74361150214525651
298.74057750070227257
298.74453647630355135
298.74313620878280062
298.73069463308218019
298.71108724345469909
298.69390127054327877
298.68606931042438646
298.68588338572067187
298.68409741860995155
298.67146408058368934
298.64620575640520883
298.61468867692030926
298.58650324859956982
298.56831587617841706
298.56070750006273329
298.55909367445531188
298.5567250118547804
299.74257639917925644
299.58365190058134431
299.43052295204199709
299.29464263300536686
299.18743292651674892
299.11066125764199342
299.05475072719991658
299.006611664375896
298.96051500532547607
298.92050181552201593
298.89605699429080232
298.89285203147090897
298.90663421813917466
298.92451634984564635
298.93299765458931461
298.92599783202030039
298.90838877443786714
298.89144464121733336
298.88371063002824712
298.88401790084003551
298.88305742101027818
298.87177724060506989
298.84911294423125128
298.82222814924125487
298.80052017189268554
298.78940576294627363
298.78764293306403488
298.78895438304351728
298.78557256126430275
298.77129173488202696
299.35186041292348591
299.33671129129754718
299.31587034325497143
299.28523785270948565
299.25431458449679667
299.23542825859630057
299.23107742275607279
299.2315674899485316
299.22358329413509637
299.20307984400551504
299.17895193516380914
299.16565755181636632
299.17320635660348671
299.19846356699912349
299.22701473467691358
299.2433608789920072
299.24073383328226328
299.22526387267458858
299.21035875925878145
299.20626201183779358
299.21178815843057919
299.21623177530841531
299.20916942184635445
299.1887854399407729
299.16234889485286885
299.13952777203593314
299.12589114855410344
299.12050645854913
299.11772830396586187
299.1106196453775965
299.09369594704236306
299.065051783289789
299.54007263048958976
299.55820234254281331
299.56234913294377975
299.54947204740051347
299.53189171757122722
299.52470805542009202
299.53146435596465835
299.54144637036250742
299.53992617207052263
299.52238293291594573
299.49933505449524773
299.48731573071495404
299.49731900774361293
299.52607874845574543
299.55749854426585443
299.57466596297490469
299.57093721126824448
299.55386163960463364
299.53854138991761147
299.5358117219514611
299.54377445256147894
299.55009097902586745
299.54333935525733068
299.5217096467670217
299.49326936674560784
299.46861292917088804
299.45378597250504527
299.44801871769561785
299.44560505179441634
299.43923864745801211
299.42278705632674018
299.39373349358925225
299.35513150039702168
300.55761736541853679
300.50106486985208676
300.42001684428697672
300.33088276630508062
300.26250869475381933
300.22148385164916817
299.90697709618592626
299.92894283111144205
299.93464962265397844
299.92105843056913272
299.90185997051332834
299.89362673243067547
299.90048154223586607
299.91062118873850295
299.90793967369393158
299.88753851333842704
299.86071074747655985
299.84578276614797687
299.85444719071199415
299.88369619475628269
299.91623955161765025
299.93359420132793502
299.92865505729940878
299.90924693945902391
299.89142777884813995
299.88653068524655509
299.892801395247659
299.8972768387638439
299.88803369676674038
299.86337431995269753
299.83175190560689316
299.80424172256334714
299.78706191993956054
299.77940826891250481
299.77549518951764185
299.76773084894171006
299.74950649583666973
299.7179855267925177
299.67631389852817847
299.63272408874769326
300.43817480886400517
300.40411777432245799
300.3628082370340735
300.29646295453164839
300.22307062428092195
300.17322336605701594
300.15218181293971611
300.29248330788476551
300.31437575625591307
300.31858481745751988
300.30259597206816125
300.28069191250273207
300.27040706412509508
300.27612398356512813
300.28529763402184471
300.28097686269535416
300.25817596428237266
300.2286900028283867
300.21186890813436321
300.22004189825418052
300.24936845077911585
300.28199211573320326
300.29808594672493882
300.29072289840900112
300.26868034671895202
300.24905169732568311
300.24351091806533987
300.24988858204608277
300.25416502668463181
300.24370326991669344
300.21711542481170909
300.18344873586687527
300.15440020071764593
300.13634285025761983
300.12823216727701947
300.1240254064902615
300.11589703886852476
300.09706936835198121
300.06465647269260444
300.02186244242807334
299.97691058926477581
299.93827925260364964
298.8685758757354165
298.87568582773150183
298.88245212726275213
298.8868852584194542
298.88886277147912551
298.88624814472495927
298.88003922954692371
298.86971196149056595
298.85537094916060141
298.84023376251985837
298.82163679921563926
298.88103576691349872
298.8885765795654379
298.89716146880783754
298.90176907948779217
298.89906998146636852
298.88901575709292047
298.87413871734707982
298.85799389721364605
298.84413182686074606
298.83566155986477497
298.8344608427034359
298.84019776138461566
298.84928065130435471
298.85602383577543151
298.85569086276927919
298.84707821594349753
298.83137329917724401
298.81179328724869038
298.7918657380625973
298.77416955153091749
298.76023136392700508
298.75064248870688743
298.74527538626625756
298.74347895835705913
298.7447681226604459
298.74919316263822111
298.75693808735957191
298.76717229248669128
298.77711451586526437
298.78248086926765836
298.77981830182909562
298.76934315000892184
298.75593306853585318
298.74695978281721409
298.74808789067043335
298.75965428037557103
298.90367737134681647
298.89955540506400666
298.89703873720173988
298.89545963722019906
298.89455420346905612
298.89427352366476498
298.89476497328394089
298.89616649396754156
298.8985558636394444
298.90173123601942962
298.9054647064589858
298.90887699672276767
298.91191396206266973
298.91320104419321524
298.91312819677915513
298.90986276388224496
298.9043115684059444
298.89559843848491028
298.88359425196023267
298.87103330835014958
298.85481375564938844
298.87414319317542777
298.88122332811855131
298.89150243250520589
298.9000917268132298
298.90236476349775785
298.89627917488184039
298.88289575427603495
298.86542807335848693
298.84854277269209888
298.83685111063488193
298.83312900069972784
298.83687288169454632
298.84422086922398876
298.84937980066604268
298.84793958038216033
298.8391168512342233
298.82530959134186332
298.8103790078019415
298.79715741754688452
298.78662319891549259
298.77845315282485217
298.77196728639114554
298.76671884295268455
298.7626347828654616
298.76019318247858791
298.76033154389654101
298.76367928775607652
298.76934364597929061
298.77417871832119545
298.77370802078581846
298.76479290571154479
298.74844728561140528
298.73071232339185599
298.72020753913437829
298.72336659768268419
298.74035561597338528
298.94018989442668044
298.93805683344214685
298.93757704139790121
298.93806029874298247
298.93899306712910402
298.94002065219410724
298.94100244848959846
298.94188161706739493
298.94265039728173861
298.94327422045552112
298.94382282934168416
298.94378148338148549
298.94350684015171282
298.94207234072598567
298.94024080649256803
298.93654923051389005
298.93183266773479545
298.92493812182215152
298.91541708639982744
298.90534887519635276
298.89124590609520737
298.86522503834999043
298.87540008725227381
298.88696494906139378
298.89428103697014194
298.89298001552856476
298.88223908370093795
298.86501842599756174
298.84661142180806337
298.83275651389698169
298.82692326312019304
298.82875090693016773
298.83447746214136487
298.8387878518902312
298.8376008029609352
298.83054172801502091
298.82070666593739361
298.81190620722162521
298.80606517210856055
298.80281364229671226
298.8005450399015217
298.79754935126351256
298.7930040740802724
298.78695926620537193
298.7803301783490042
298.77469675494938883
298.77160840320874513
298.77086984129908842
298.76970889647759577
298.76383695862949708
298.75028178433353787
298.73034210692077295
298.71027297659094302
298.69890833830959309
298.70309462575238513
298.97774486727672638
298.97917581687789834
298.98144861487446633
298.98388879890092085
298.98600191936554893
298.98735223772712288
298.98773497323855963
298.98707570262519084
298.9854031379600201
298.98319035647830333
298.98037999281319799
298.977710389026754
298.97454611559101068
298.97171746361601663
298.96786607098647437
298.96373704881023059
298.95806259393481241
298.95022074293473224
298.94184399344140957
298.92926239789460396
298.84375839312258449
298.85013019752153696
298.86136155592168961
298.87175613790776652
298.87536902963239527
298.86918483988694106
298.85490662015536145
298.83758433304456048
298.82324927081202759
298.81615511047999689
298.81651348160573889
298.82102612403167541
298.8253206082719089
298.82631711667397667
298.82383347953458497
298.82006268336306221
298.81760257381313295
298.81767664306363486
298.81963586949399314
298.82151655127091772
298.82127378235497872
298.81759512910980447
298.81023559097263842
298.79995885484538576
298.78874087583545816
298.7789762597843719
298.77164879476572423
298.76515719447087349
298.75578656825706503
298.74045428142454739
298.72011550033647609
298.70044545486257448
298.68957298947037771
298.6939709089078292
299.01684016243348196
299.01955791852196853
299.02292776348218695
299.02631264178813808
299.02904406189315978
299.03062917106689156
299.030754028818194
299.02933312349824746
299.02649931275186646
299.02277229087007981
299.01843361393559917
299.01443080360667182
299.01037039152276975
299.00705511508414247
299.00320668410222424
298.99931532674986556
298.99408469935860921
298.98690994004033428
298.97916798779385772
298.96741983077407667
298.81852185100831321
298.82607398262189236
298.83715443027438141
298.84544373350229307
298.8458834075828463
298.83765888353377704
298.82431464858433401
298.81131998448159948
298.80331929168596616
298.80205852145348899
298.80614550839817412
298.81258746160511919
298.81863979736209558
298.82296923422114787
298.82591342366742992
298.82858404123351193
298.83173226218053742
298.83520944365920968
298.8381705634092782
298.83913867499211392
298.83626128759425455
298.82833243939870727
298.81562872295927491
298.80019330178021164
298.78499137496504545
298.77235347022633505
298.76219309008564551
298.75182225044915185
298.73843746109383801
298.72186424399194493
298.70595939910720062
298.69735177681980076
299.05741666758353858
299.06077279660610202
299.06394601481099471
299.06644054306798353
299.06785874501662192
299.06785134611084231
299.06631884302197477
299.06339320366043921
299.05962715522696271
299.05520139183869333
299.0510407082423967
299.04677555046936277
299.04310119544544477
299.03891165696626331