/*--------------------------------*- C++ -*----------------------------------*\
  =========                 |
  \\      /  F ield         | OpenFOAM: The Open Source CFD Toolbox
   \\    /   O peration     | Website:  https://openfoam.org
    \\  /    A nd           | Version:  12
     \\/     M anipulation  |
\*---------------------------------------------------------------------------*/
FoamFile
{
    format      ascii;
    class       volScalarField;
    location    "0.0056";
    object      alphat;
}
// * * * * * * * * * * * * * * * * * * * * * * * * * * * * * * * * * * * * * //

dimensions      [1 -1 -1 0 0 0 0];

internalField   nonuniform List<scalar> 
106891
(
7.7805334308060507579e-06
7.7737399540330000708e-06
7.7657255300859807267e-06
7.7591442767269313592e-06
7.7512097682701140103e-06
7.7445908745192084001e-06
7.7362929383670875111e-06
7.7292429685461105742e-06
7.7204218728046300051e-06
7.7129939003513399431e-06
7.7029314679643735701e-06
1.1361767048906108526e-05
1.1405132509947274588e-05
1.1448688896892626746e-05
1.1489819129367672356e-05
1.1526616488875270045e-05
1.1558022239840913152e-05
1.1583606895331372485e-05
1.1603379896128930768e-05
1.1617324921238937632e-05
1.1625145162692889059e-05
1.1627065924949929324e-05
1.1623812629158439589e-05
1.1616831371088881577e-05
1.1608507015006618336e-05
1.1600572076376656363e-05
1.1593817875602782956e-05
1.1587841697962770042e-05
1.1581570919228622096e-05
1.1573876055508751191e-05
1.156317860419385576e-05
1.154625562996240622e-05
1.1525565669723316273e-05
1.1505121372240920938e-05
1.1486244895621414014e-05
1.1467381132701061485e-05
1.1448975511458761291e-05
1.1429843026023645176e-05
1.1411149434596718898e-05
1.1392484775435646958e-05
1.1374990209243502379e-05
1.1357797802066112815e-05
1.134216864323983937e-05
1.1327174541096475806e-05
1.1313687811777200723e-05
1.1300580319485193317e-05
1.1288623087744209295e-05
1.1276452404405440031e-05
1.1265028245307031235e-05
8.2608627293980451105e-06
8.2516257691063844766e-06
8.2440225405560214325e-06
8.2345940503090722846e-06
8.2268585825155938861e-06
8.2173791989679439518e-06
8.2096497508730093066e-06
8.2002589957690615366e-06
8.1926807367359445039e-06
8.1836133404922959615e-06
8.1763246183236658061e-06
8.1676375975071265246e-06
8.1605774588000577953e-06
8.1519104478660989481e-06
8.1447275249750412512e-06
8.1355790664498902828e-06
8.1279689821111852195e-06
8.1182945267743063787e-06
8.1102612574964464852e-06
8.0991157315791186341e-06
1.2017549380752533408e-05
1.2063926589157145382e-05
1.2107582275508133472e-05
1.2146660850808072148e-05
1.2180030924375497548e-05
1.2207165757934439093e-05
1.2227997926586173862e-05
1.2242568763156017308e-05
1.2250596945631265177e-05
1.2252534248645037337e-05
1.2249126137911419744e-05
1.2241873455546963486e-05
1.2233100119552710105e-05
1.2224484141263143049e-05
1.2216733374311236756e-05
1.2209614387460080928e-05
1.2202137451488944726e-05
1.2192947363315040081e-05
1.2179724442779332969e-05
1.215909935454231217e-05
1.2136742506792954992e-05
1.211625621084556304e-05
1.209646527198445732e-05
1.2077568019910807248e-05
1.2057758184281233493e-05
1.2037714767670569573e-05
1.2016878897398276677e-05
1.1996631207195808462e-05
1.1976377864383425952e-05
1.1957725540748028123e-05
1.1939926696660328341e-05
1.1924160890259175475e-05
1.1909346319758758184e-05
1.1896246876552047712e-05
1.188328537714126308e-05
1.1871208561148628848e-05
8.6905786998468959211e-06
8.6807300773075605268e-06
8.6726684186933968289e-06
8.6624929630442571094e-06
8.6541618561153521171e-06
8.6438212786754787484e-06
8.6354563932781735087e-06
8.6252463725746543563e-06
8.6171340140913914459e-06
8.6072938277021211756e-06
8.5994859165781200444e-06
8.5900141786404910545e-06
8.5823938897945333654e-06
8.5728706710259197654e-06
8.5650437009931908839e-06
8.554940918982794986e-06
8.5466964291500285042e-06
8.5360873689364883299e-06
8.5274766845304287666e-06
8.5153204874481904505e-06
1.2653155420095776453e-05
1.2696617583295426941e-05
1.2737537805257030709e-05
1.2774545139694453295e-05
1.2807201466837600374e-05
1.2835072811374645946e-05
1.2857901001442611022e-05
1.2875337516612487331e-05
1.2887375566007921602e-05
1.2894356051703979754e-05
1.2896459616038296204e-05
1.2894717107222526442e-05
1.2890301861767317762e-05
1.2884155971028151861e-05
1.2877373455706802937e-05
1.2870149806387703355e-05
1.2862122137876245634e-05
1.2853059503189334707e-05
1.2842700880292607212e-05
1.2829412855943753184e-05
1.2808037670376212734e-05
1.2783856975990239965e-05
1.2760497177346263975e-05
1.2738180123079885655e-05
1.2715019642213204245e-05
1.2691761082569692591e-05
1.2667646102279761649e-05
1.2644172239853081384e-05
1.2620803610655878475e-05
1.2599336119662218043e-05
1.2579039024943633953e-05
1.2561212026478314752e-05
1.2544678278633366892e-05
1.2530226269461912697e-05
1.2516081168874549436e-05
1.2502942174712417455e-05
9.132111084824120879e-06
9.123518388029292281e-06
9.1125303965627535885e-06
9.1035221581521138552e-06
9.0922898114953319042e-06
9.0832561162587782813e-06
9.0721756369185380559e-06
9.063437005498216093e-06
9.0527448696259291621e-06
9.0443443265149071176e-06
9.0339205408219357764e-06
9.0255551392407297652e-06
9.0149859675955578667e-06
9.0063655021511058887e-06
8.9951645721496356715e-06
8.9861978480686082534e-06
8.9745628239350158921e-06
8.9653818220136559511e-06
8.9522839975055356303e-06
1.3378423522800785036e-05
1.3432660445429131168e-05
1.3483482492538687722e-05
1.3529162520020108124e-05
1.3568101900509156867e-05
1.35989168877643188e-05
1.3620830694934768466e-05
1.3633859362220379969e-05
1.3638881004191421079e-05
1.3637501460426175397e-05
1.3631527210784362755e-05
1.3623356669129962091e-05
1.3614435768483287972e-05
1.3605194002842823869e-05
1.3595572341973596869e-05
1.3584747938567987019e-05
1.3571214031854550731e-05
1.3551058028538094991e-05
1.3521582582509533496e-05
1.3493227488023604708e-05
1.3465892074434670996e-05
1.3440529491604058835e-05
1.341534077343689674e-05
1.3390711397979431941e-05
1.3365199576711690323e-05
1.3339904100512592163e-05
1.33140518019887171e-05
1.3289583958107004224e-05
1.3265833636703390288e-05
1.3244443055694532919e-05
1.3224432189108410634e-05
1.3207064439008137874e-05
1.3190653083361091771e-05
1.3176071844386600952e-05
9.6181735374247003261e-06
9.6069039653158477479e-06
9.5977146564749231562e-06
9.5859231439121602293e-06
9.5762367142901806612e-06
9.5640977001096604454e-06
9.5543205098274613111e-06
9.5422648661753243046e-06
9.5327923539490929235e-06
9.5210561171102338682e-06
9.5118507807417544887e-06
9.5002446434543412289e-06
9.4909299234705694361e-06
9.4790906983411394931e-06
9.4694876022620629448e-06
9.4570540478765557636e-06
9.4472876476846202371e-06
9.4346570023421260796e-06
9.4249470320080541187e-06
9.4110232636831434852e-06
1.4065613280487247608e-05
1.4116282259824229097e-05
1.4164611284544460646e-05
1.4209384796117164318e-05
1.4248741767700517471e-05
1.4281440332230260347e-05
1.4306423045313027375e-05
1.432316125567514719e-05
1.4332265878115382909e-05
1.4334909219683998852e-05
1.4333200306036641261e-05
1.4328077136308036395e-05
1.4320873919432124358e-05
1.4312230359207853909e-05
1.4302219156196755245e-05
1.4291098512570804449e-05
1.4278726270202414596e-05
1.4264129416754445812e-05
1.4242925135470054001e-05
1.4213149222284578041e-05
1.4184785964648419419e-05
1.415704927890943934e-05
1.4130905604772336595e-05
1.4104555259143908397e-05
1.4078757715184952843e-05
1.4051868783040583077e-05
1.4025705307068983324e-05
1.3999346627587389184e-05
1.3974859243090775128e-05
1.3951163910729985797e-05
1.3930059379420672107e-05
1.3909858197993885896e-05
1.3892078945848817338e-05
1.0106490344507200203e-05
1.0096702799454872706e-05
1.0084058226417148924e-05
1.0073720579531536052e-05
1.0060673223204356905e-05
1.0050173180422600458e-05
1.0037086751783468115e-05
1.0026712235695107937e-05
1.0013737946784929074e-05
1.0003447447678681412e-05
9.9903901396223964289e-06
9.9798620260870868928e-06
9.966524219928761538e-06
9.9558270135296108281e-06
9.9421291741681616801e-06
9.9315630969218114335e-06
9.9179964281551509362e-06
9.907795731626661343e-06
9.8931032994475057065e-06
1.483926596483225153e-05
1.4887321758122605591e-05
1.4932925599320366497e-05
1.4973956193986584937e-05
1.500880783924797095e-05
1.5036112730630855035e-05
1.5055032373821955133e-05
1.5065983360653084459e-05
1.5070389761610644024e-05
1.5069670940309996211e-05
1.5065753078859586049e-05
1.5059181243955066491e-05
1.5050636338328589328e-05
1.5040283114856011672e-05
1.5028838717748255088e-05
1.5016469785544524565e-05
1.5002757530991731218e-05
1.4985280269692677091e-05
1.4957739480707620661e-05
1.4927928785105321307e-05
1.4898631862000468118e-05
1.4871276250620733969e-05
1.4844236257173925323e-05
1.481825356576583645e-05
1.4791531292809529053e-05
1.4765562830548343486e-05
1.4739239673125193667e-05
1.4714391153000270715e-05
1.468998532355909699e-05
1.466759017522795479e-05
1.4645718617468663649e-05
1.4625888121780356648e-05
1.0631950505281737075e-05
1.0621627122674281426e-05
1.0608244347262556036e-05
1.0597483625669144983e-05
1.0583638088572212976e-05
1.0572495628741181587e-05
1.0558309511482486562e-05
1.0546922516869276584e-05
1.0532518617782098174e-05
1.0520896120873472065e-05
1.0506193436817030831e-05
1.0494307472111946041e-05
1.0479337940405904718e-05
1.0467525296425404945e-05
1.0452652231241613538e-05
1.0441351220398059925e-05
1.0427008730619034951e-05
1.0416383215122093566e-05
1.0401160513362220781e-05
1.5661066863389500942e-05
1.5707218302391446794e-05
1.5750037781701459871e-05
1.5787537843677990784e-05
1.5818671822541764297e-05
1.5842411188855898486e-05
1.5858288949751850902e-05
1.586746818913603585e-05
1.5871219166240756453e-05
1.5870582621512838314e-05
1.5866935461704677481e-05
1.5860114579027947469e-05
1.5850920299955785394e-05
1.5839965116050545895e-05
1.5828223140200017518e-05
1.581562895614702823e-05
1.5800435706213046663e-05
1.5777340297545911543e-05
1.5742707060709511057e-05
1.5709101722508164896e-05
1.5676351525200482297e-05
1.564620480965691406e-05
1.5616568577947186497e-05
1.5588693766507415059e-05
1.5560494192260627413e-05
1.5533715238880490362e-05
1.550672467551455637e-05
1.548141155684777464e-05
1.5455899845525712563e-05
1.543211852440799786e-05
1.1174180548874511381e-05
1.1160244025459671471e-05
1.1149209231594933118e-05
1.1134741412785796878e-05
1.1123072142953715287e-05
1.1107847597716963785e-05
1.1095439215222918904e-05
1.1079588747345706041e-05
1.1066620952036357024e-05
1.1050330563767388038e-05
1.1037152838372620158e-05
1.1020736294700242926e-05
1.1008025093202123838e-05
1.099223969416607666e-05
1.0980462397027092365e-05
1.0965630728788695422e-05
1.0954689896912513781e-05
1.0939148227596825913e-05
1.6502869729943580928e-05
1.6551912288288642123e-05
1.6595732311965549993e-05
1.6632822414010701848e-05
1.6661968761510517306e-05
1.6682426556732041364e-05
1.6694777430054563629e-05
1.6700150108256187303e-05
1.6699873143109464254e-05
1.6695906780134942644e-05
1.668882664056966551e-05
1.6679571362782055804e-05
1.6668934979842365499e-05
1.665761612293047947e-05
1.6645462169807928409e-05
1.6630820601475139486e-05
1.660892023334921934e-05
1.6575775084708952611e-05
1.6541115942732173934e-05
1.6508418328279462198e-05
1.6476620741289701885e-05
1.6447438233920594743e-05
1.6418909475756272734e-05
1.6392197930097196452e-05
1.6365268197923854153e-05
1.6339464395883046799e-05
1.6312913020190090632e-05
1.6287044641741975159e-05
1.1768718806526624424e-05
1.1754748263062218523e-05
1.1743650473291691167e-05
1.1729123392676033308e-05
1.1717113009600499014e-05
1.1701415035682425551e-05
1.1688194793351446064e-05
1.1671435767669677389e-05
1.165742781239542554e-05
1.164012765893971096e-05
1.1626066815719674727e-05
1.1609043272295975754e-05
1.1595951392707936888e-05
1.1579935065235578829e-05
1.1568127754585725748e-05
1.1553326626414033742e-05
1.154234851946017769e-05
1.1527268871769143181e-05
1.7410172575227360499e-05
1.7450645186771959207e-05
1.7484013512736621895e-05
1.750947028999836209e-05
1.7526340746902785097e-05
1.7535077214093616385e-05
1.7537130857747379312e-05
1.7533747094105268715e-05
1.7526984541828381922e-05
1.7517996327325436565e-05
1.7507526667510232263e-05
1.7496285749881577878e-05
1.7484713781577064469e-05
1.7472514185751381857e-05
1.7458114736930529078e-05
1.7437246417860643733e-05
1.7405990479509300331e-05
1.7372382428921103538e-05
1.7339779235109402503e-05
1.730761550911993175e-05
1.7278018971994778253e-05
1.7249717916732569545e-05
1.7223874798738796342e-05
1.7198369254264829947e-05
1.7173753951569914407e-05
1.7147898512807515758e-05
1.7121842240506834058e-05
1.232296366114930121e-05
1.2307423984022655453e-05
1.229359024307359339e-05
1.2276741272190577672e-05
1.2261438290284901035e-05
1.2243255655774254947e-05
1.2226376992464619515e-05
1.2207512959562496485e-05
1.2190258698398525494e-05
1.2171543320466888662e-05
1.2155184064336985178e-05
1.2137570273724150176e-05
1.2122568267376104616e-05
1.2106548571283080266e-05
1.2092670406962820523e-05
1.2077345244211443756e-05
1.2063551395314452486e-05
1.8008020218247074076e-05
1.8048643556627297677e-05
1.80819216268241452e-05
1.8107222245232716532e-05
1.8123725385093248882e-05
1.8131457107719005937e-05
1.8131748398179088166e-05
1.8126250160288848439e-05
1.8116859290821519098e-05
1.8105220360938518488e-05
1.809239143161394444e-05
1.8079000169586828783e-05
1.8065540605505897939e-05
1.8052226144447687094e-05
1.8038323869038632141e-05
1.8021645693608023131e-05
1.7996391318591600241e-05
1.7963616550437763091e-05
1.7931258258173566098e-05
1.7898220052196039324e-05
1.7866867096384522523e-05
1.7836304597191385681e-05
1.7809060995385525724e-05
1.7783404105965106614e-05
1.7760199163305706311e-05
1.7736581818602127397e-05
1.7712961824131034379e-05
1.2630196475908473994e-05
1.2615464079330642269e-05
1.2594009905339457634e-05
1.2578046782750596742e-05
1.2555321921647670289e-05
1.253840768814540679e-05
1.2515007864438837788e-05
1.249811419257411433e-05
1.2475289670838924112e-05
1.2459177862389511938e-05
1.2437284957041889886e-05
1.2422481659678508679e-05
1.240155487672552542e-05
1.2387627760220774583e-05
1.2363652769696909886e-05
1.2358460034570071807e-05
1.4131690776296886895e-05
1.4164440825291289163e-05
1.419071268797898321e-05
1.420979134194200114e-05
1.4221090953962152131e-05
1.4224867066535310133e-05
1.4222896048588298134e-05
1.4217167916785134417e-05
1.4209336173533614964e-05
1.4200289002496992277e-05
1.4190093369666021024e-05
1.4178825895801616848e-05
1.4167178903940097183e-05
1.4155216479928905217e-05
1.414245353551081277e-05
1.4126677534726851489e-05
1.410306034350766872e-05
1.4078068365459533437e-05
1.4052740753691230621e-05
1.4028556026610315374e-05
1.4004854093245038763e-05
1.3983102762060410035e-05
1.3962561316865766578e-05
1.3944423316628404573e-05
1.3927300604166185019e-05
1.3911080722363827593e-05
1.3894346809722068453e-05
1.3877332499649108812e-05
9.8106344174698986726e-06
9.7937845582898955818e-06
9.781379194981367056e-06
9.7639908445127626788e-06
9.751241816935875674e-06
9.7335727588449822133e-06
9.7210752111650146747e-06
9.7036822321158832907e-06
9.6916506023542029792e-06
9.6747481541883622013e-06
9.6632997293802166288e-06
9.6466331347804961966e-06
9.6354275776407233371e-06
9.6160028187452041071e-06
9.613989375000562304e-06
1.3443683257089344469e-05
1.3474040999247823464e-05
1.3496010248482590192e-05
1.3508763949247169862e-05
1.3512839139665885872e-05
1.3510393349696360793e-05
1.3504205869683870927e-05
1.3496263792406395195e-05
1.3487053943705588094e-05
1.3477141070723363815e-05
1.3466149213546589752e-05
1.3453571876896076447e-05
1.3438746638307821682e-05
1.3417857087643550831e-05
1.33877180524265857e-05
1.3356547357810749115e-05
1.3326974380221016594e-05
1.3298182857951394999e-05
1.3271447831850682891e-05
1.3245925519325142515e-05
1.322266518105747569e-05
1.3200707502067810057e-05
1.3181002349248353909e-05
1.3162245475653213867e-05
1.3144555738093808539e-05
1.3126519824736699641e-05
1.3108537746661250102e-05
9.3318331991122564306e-06
9.3210559799090621024e-06
9.3062551350111610767e-06
9.2954976009787134946e-06
9.2808555173975937135e-06
9.2704531248708119242e-06
9.2561350002654127977e-06
9.246004040353405346e-06
9.2317811378495739797e-06
9.2217353223822805404e-06
9.2073206260449333942e-06
9.1971059795030276528e-06
9.1806270455725176035e-06
9.1734340105636703991e-06
1.2930202358724835496e-05
1.29503257658655801e-05
1.2962904943217441666e-05
1.2968441928039906952e-05
1.2968440712606010235e-05
1.2965057947770465183e-05
1.2959969990952011871e-05
1.2953531900269073395e-05
1.2945409778729254996e-05
1.2935862663112662028e-05
1.2924842511384143051e-05
1.291248469319313441e-05
1.2898471333863768123e-05
1.2880219783085369297e-05
1.2852360706886544861e-05
1.2824064889707322243e-05
1.2796501855738339837e-05
1.2771476886681711429e-05
1.274765585487780406e-05
1.272622752857496356e-05
1.2705467187498712065e-05
1.2686742435300795692e-05
1.2668390858693161994e-05
1.2651302558411890592e-05
1.2633697549239214974e-05
1.2616659057038868513e-05
8.9771233787977829419e-06
8.9633346592171443662e-06
8.9535218761176317689e-06
8.9400851115508526881e-06
8.9307092305047432494e-06
8.917500162260115471e-06
8.9081529109901884693e-06
8.8946960399808534304e-06
8.884937139254032369e-06
8.8707984227866304363e-06
8.8605485159915130857e-06
8.8445305402650493292e-06
8.8366033096208889758e-06
1.2458881353886606182e-05
1.2473824962179834018e-05
1.2481769112034479588e-05
1.2483878238928599748e-05
1.2482171520134793994e-05
1.2478192836096372947e-05
1.247244446529579412e-05
1.2465097222450525572e-05
1.2456328895806315185e-05
1.2445990735061459749e-05
1.2433887596247700363e-05
1.2419201108552749803e-05
1.2398177405144593003e-05
1.2368594905003559324e-05
1.2339978345581734733e-05
1.2312747548208766493e-05
1.2288283009980459517e-05
1.2265722762913478791e-05
1.2245451047760358491e-05
1.2226173462534081819e-05
1.22083428202206457e-05
1.2191034247326141643e-05
1.2174484896049483158e-05
1.215789841476696256e-05
1.2141673591704864145e-05
8.6216450975418954379e-06
8.6124881133656493995e-06
8.5999132750900307153e-06
8.5912268007244679434e-06
8.578771747674490675e-06
8.5699169789469153524e-06
8.5569384631899823444e-06
8.5473512215876711198e-06
8.5333853151146294927e-06
8.5230813159712815206e-06
8.5071465378879912038e-06
8.4992374016853829757e-06
1.2033991032223549756e-05
1.203942748709905855e-05
1.2039258510932520307e-05
1.2035430568961760095e-05
1.2029448127811278162e-05
1.2022492327350622825e-05
1.2014819306664732061e-05
1.2006164529028867625e-05
1.1996048304547265336e-05
1.1983677164277427741e-05
1.1966722458096056995e-05
1.194012277842244294e-05
1.1910003820595460973e-05
1.1881362305828762686e-05
1.1853940603221749974e-05
1.1829506136318999608e-05
1.180704266567828436e-05
1.1787333641680564875e-05
1.1768633668989714818e-05
1.1751594333124498539e-05
1.1734827930943710916e-05
1.1719022079149144812e-05
1.1703131608083133013e-05
1.1687930545696918053e-05
1.1563914465454709098e-05
1.1565994978368744026e-05
1.1564334705127313682e-05
1.156017285637037075e-05
1.155423467873501206e-05
1.1547126486306833972e-05
1.1539164738753860361e-05
1.1530251399814956602e-05
1.15199029061347644e-05
1.1506964276115215658e-05
1.1487333292268672253e-05
1.1459024727149532143e-05
1.1431475937835848731e-05
1.1404942210093445813e-05
1.138117783253159325e-05
1.135946006856136667e-05
1.1340647952506448395e-05
1.1323134578765215412e-05
1.130734221613076915e-05
1.1291827737530006477e-05
1.1277165245825222935e-05
1.1262437643721296218e-05
1.124843317522676376e-05
1.113999023714399657e-05
1.1137977537086276301e-05
1.1133343436031568286e-05
1.1126780997207376029e-05
1.1119048382810453124e-05
1.1110771895589112052e-05
1.1101701313594504415e-05
1.1090786738751218842e-05
1.1074736912411106693e-05
1.1047659455876900287e-05
1.1019039792817557268e-05
1.0990986580071571228e-05
1.0965446531893711655e-05
1.0942039209927283228e-05
1.0921794860465029316e-05
1.0903238087078049692e-05
1.0886746531796369163e-05
1.0870832202026368865e-05
1.0855987463231153448e-05
1.0841282921751176828e-05
1.0827538033423520173e-05
1.0669379600049111372e-05
1.0661622437699604839e-05
1.0653920499488706355e-05
1.0645800221643855635e-05
1.0635409229328504976e-05
1.0617533805551478701e-05
1.059311344537795777e-05
1.0568325397712614546e-05
1.0545227577268964978e-05
1.0523663946063224243e-05
1.05048635492589454e-05
1.0487558389480615715e-05
1.0472161774931674317e-05
1.0457271717309373301e-05
1.0443421259275011237e-05
1.042976961817344882e-05
1.041713262146062269e-05
1.0248964797598235371e-05
1.0225360758694587897e-05
1.0201950357979791095e-05
1.0178109450113506e-05
1.0155590210290480285e-05
1.0134304608118744161e-05
1.0115579153855936377e-05
1.0098314727292823635e-05
1.0082974680751105104e-05
1.0068232393975546155e-05
1.005463588468695599e-05
1.0041383950783621225e-05
1.0029272707469673887e-05
9.8190975829472060835e-06
9.8024125162831330786e-06
9.7838973423016313254e-06
9.7654847066514133719e-06
9.7473173790465345961e-06
9.7308673592801749383e-06
9.7152728862993974288e-06
9.7011595011269879398e-06
9.6874755894016285754e-06
9.6748669335379384641e-06
9.6626029384320188817e-06
9.6514112452953007397e-06
5.2611865907521766675e-06
5.1858165463618627008e-06
5.1513176548254573304e-06
5.1408504249178422899e-06
5.1397666656387992125e-06
5.1595767875219775757e-06
5.2530816188717626751e-06
5.4100350928579652907e-06
5.527002771545665162e-06
5.6023302257238798379e-06
5.6430496455933283674e-06
5.6594595199368057255e-06
5.6629852601753681457e-06
5.6616724202269699402e-06
5.6499429600079628354e-06
5.6047672877282566132e-06
5.538363800880817032e-06
5.4848393309059531242e-06
5.4448096354969113049e-06
5.4186911432015286743e-06
7.5106836649272774292e-06
7.287407849836886218e-06
7.1341455609854509507e-06
7.0542644840920427012e-06
7.0251751445306938082e-06
7.0173866373585698549e-06
7.021515527924623413e-06
7.0693103379717034211e-06
7.1535128574415546138e-06
7.2073169943336048082e-06
7.2315220149557840886e-06
7.2391575040902226456e-06
7.2395767920962201793e-06
7.2364112040747119702e-06
7.2192081444914122594e-06
7.1869573193345990224e-06
7.1626554397690278582e-06
7.1467906742713662385e-06
7.1370396115004781329e-06
7.1297163608117715528e-06
7.1235890261319250358e-06
7.1181817810669018051e-06
1.2470051422796877175e-05
1.2347987344261369825e-05
1.207810992556920014e-05
1.1859561207268910427e-05
1.1729500220526679631e-05
1.1676104619983374578e-05
1.1657652694233848776e-05
1.165234929164857947e-05
1.1674062788942888988e-05
1.173614489520577064e-05
1.1771052428636920135e-05
1.1783885908983437516e-05
1.1784563015991185238e-05
1.1779610868787242461e-05
1.1765277907862465296e-05
1.1715415025645845967e-05
1.1635646126019700145e-05
1.1565301321717059201e-05
1.1508607925230664087e-05
1.1465885099195083585e-05
1.1431663232088580792e-05
1.1402002112087772403e-05
1.1375301120951384015e-05
1.1348947737508274547e-05
1.1324906212551947703e-05
1.1305697519616702689e-05
2.6698031230805357246e-05
2.6333568240444556505e-05
2.6079352940305377921e-05
2.5954562695922171078e-05
2.590889087085728834e-05
2.5903646947416322403e-05
2.5940159552732251584e-05
2.6090230982919425926e-05
2.6229631028160133998e-05
2.6287151005940747516e-05
2.6293258713168479881e-05
2.6273163301985561841e-05
2.6242343157926222101e-05
2.6165719484792999868e-05
2.6030666295017850257e-05
2.5918618884386255294e-05
2.583446854390146209e-05
2.5776591044195185987e-05
2.5738423692055018916e-05
2.5713174740231645719e-05
2.5695377119780103139e-05
2.5682150420268260918e-05
2.5667744729126952297e-05
2.5648875377943511816e-05
2.5623840840975129862e-05
2.5591989234921679053e-05
2.5556090478939862218e-05
2.5522293008300765769e-05
6.1009499321712040926e-05
6.069943059672613158e-05
6.0486421082965415095e-05
6.0371673048751566904e-05
6.0320356440829548208e-05
6.0305925196508123275e-05
6.0353319507151120035e-05
6.0427463108976063144e-05
6.0447104838715934414e-05
6.0427502335941428067e-05
6.0393065188508395804e-05
6.0334704636370480849e-05
6.0208393888058491948e-05
6.0041311541978084198e-05
5.9891837007885140797e-05
5.9763162372441633785e-05
5.9655765206528780652e-05
5.9567028761807457396e-05
5.949096864801112737e-05
5.9420948646261280239e-05
5.9351434889186194407e-05
5.9280245092741717158e-05
5.9211570195986820784e-05
5.9147374814620768475e-05
5.9086640046553019366e-05
5.9030270538825041526e-05
5.8976958046770448579e-05
5.8926840640354308503e-05
5.8872230476236682417e-05
5.8797996731879947213e-05
9.9461845063406650381e-05
9.9254956501142229254e-05
9.9091422065423738767e-05
9.8960974190221399774e-05
9.8848226674460329356e-05
9.8737241615621309252e-05
9.8614753046875400894e-05
9.847301461175968218e-05
9.8310988329069367545e-05
9.8135350025663667362e-05
9.7956093069106724299e-05
9.7780400855051045656e-05
9.7609312825136976374e-05
9.7439965005865350543e-05
9.7271163542999615546e-05
9.7105488358868534936e-05
9.6947561481377673639e-05
9.6798807877145339276e-05
9.6653744977180284267e-05
9.6502399934070078763e-05
9.6335845226545687076e-05
9.6154563759404340921e-05
9.5967505149866121398e-05
9.5785801051753458675e-05
9.5613663676903074169e-05
9.544856318639251215e-05
9.5285598480926878505e-05
9.5124603945024883284e-05
9.4969977287565521436e-05
9.4826388965618411465e-05
9.4689970137248842324e-05
9.4555021803003648766e-05
0.00012421531245818373231
0.00012395929535937634416
0.00012371966743505974752
0.00012349557600901047718
0.00012328535967594993553
0.00012308670143164099462
0.0001228961765368707579
0.00012271050272853230171
0.00012252854662845314424
0.00012235209686063693957
0.00012218219285916399929
0.00012201496443131845822
0.00012184092217156995339
0.00012165162741021601645
0.00012144596120624708371
0.00012123349374114917166
0.00012102817032165683725
0.00012083724029725226572
0.00012065442584989938442
0.00012046483088247469744
0.000120256113254120568
0.00012003015652267469166
0.00011980178414773738431
0.00011958643295818741222
0.00011938887464317531225
0.00011920249565796558696
0.00011901892816118173329
0.00011883916417470279548
0.00011867068261504822718
0.00011851953023563830932
0.0001183782986682114976
0.0001182343842449247711
0.00011807473271367705295
0.0001616031977993144346
0.0001606746542746057666
0.00015978601222955388138
0.00015896788432358520968
0.0001582342266717471442
0.00015755222869056473419
0.00013697613229001943144
0.00013672179683208769306
0.00013648591944699688333
0.00013626660453842597801
0.00013606189655764614138
0.0001358689836859697101
0.00013568429003171176552
0.00013550552707854382635
0.00013533293303234997392
0.00013516906872241990522
0.00013501385001415207223
0.00013485989328427378485
0.00013469260575005455836
0.00013449985469943842218
0.00013428291041460570948
0.00013405683816130107124
0.00013383987277846128234
0.00013364101240186573838
0.00013345165113293292478
0.00013325211450776700147
0.00013302795474328947176
0.00013278248211664293063
0.00013253430049985198669
0.00013230255423965636154
0.00013209227534479792815
0.00013189440354245451957
0.0001316997469670996249
0.00013151065375085381893
0.0001313385090019459744
0.00013118916234409769912
0.00013105331021043986226
0.00013091025158218705447
0.00013074600967895631072
0.00013055834416221610665
0.00015233320338798141732
0.00015130813581849914288
0.00015034672994178552318
0.00014946971114248715717
0.00014870258479711200798
0.00014802705253746465124
0.00014737796663229476494
0.00013287799833562770335
0.00013275898456244789188
0.00013265883963601058336
0.00013257177317466397009
0.00013249219429474552614
0.00013241333314779305148
0.00013232805298175919547
0.00013223335947136886947
0.00013212909613304112469
0.00013201633358559818174
0.00013189207548538163452
0.00013174644110223307698
0.00013156726279392507166
0.00013135022703033701562
0.00013110639569781812764
0.00013085756692971845959
0.00013062214253502986449
0.00013040226017406252685
0.0001301823533009737713
0.0001299423976307953932
0.00012967714675383003407
0.00012940121830106018821
0.00012914016963330425688
0.00012891104402223353058
0.00012871038664912610658
0.00012852243029967696684
0.00012833618873952924006
0.0001281553562496834484
0.00012798816825217035624
0.00012783316648614089384
0.00012767408065138380314
0.0001274894861452015402
0.00012727080571734046815
0.00012702628211239605223
0.00012677212287711927185
7.0001004643149609403e-08
7.0096211915990672642e-08
7.0251533957641870549e-08
7.0312349983888149847e-08
7.0465611541597414864e-08
7.0542132539561800272e-08
7.0726448551724457212e-08
7.094470605098232737e-08
7.1217352937257442377e-08
7.1450552558452830801e-08
7.1711093145783666982e-08
6.6721326210538580561e-07
6.654301705241778474e-07
6.6380403302009841765e-07
6.6241622581605471842e-07
6.6132205699018213945e-07
6.6049048367181355328e-07
6.5984790300811048518e-07
6.5931483345819273303e-07
6.5873391814307270043e-07
6.5796295213683463711e-07
6.5679752150339169273e-07
6.547173327555060995e-07
6.4985632826485671184e-07
6.3583122494423399105e-07
6.0536982394769653333e-07
5.7203807102840421386e-07
5.3780503123998327766e-07
5.0331454449559817441e-07
4.6908341613370051705e-07
4.3558249382527963637e-07
4.0319512494919608389e-07
3.7225357116454758319e-07
3.4299670932504705454e-07
3.1561608025993973172e-07
2.9021439519955779668e-07
2.6687976680737112223e-07
2.4565847182921148299e-07
2.2661124627026924365e-07
2.0971935847960474718e-07
1.9496429826293469067e-07
1.8221579092387339509e-07
1.7137980628263358738e-07
1.6226919252989575543e-07
1.5476796956912111296e-07
1.4856105541119433162e-07
1.4347317053018056487e-07
7.2508659102472654442e-08
7.2593827318016431434e-08
7.2653531216675199547e-08
7.2712479254476662712e-08
7.2746642496745854643e-08
7.2854880452152488071e-08
7.2943861127307271808e-08
7.3064925648436932795e-08
7.3230434426559903362e-08
7.3364538042318785592e-08
7.3584560323282762495e-08
7.3683035588857840951e-08
7.3824608299280333203e-08
7.3866539406854188335e-08
7.3982689343010496748e-08
7.4044250746673497319e-08
7.4156421603452686116e-08
7.4407572361148070747e-08
7.4611965220811059039e-08
7.4831484440329481024e-08
7.5069847803135554837e-08
6.9176703195885170855e-07
6.9124723858629162773e-07
6.9090201282435852919e-07