/*--------------------------------*- C++ -*----------------------------------*\
  =========                 |
  \\      /  F ield         | OpenFOAM: The Open Source CFD Toolbox
   \\    /   O peration     | Website:  https://openfoam.org
    \\  /    A nd           | Version:  12
     \\/     M anipulation  |
\*---------------------------------------------------------------------------*/
FoamFile
{
    format      ascii;
    class       volScalarField;
    location    "0.0056";
    object      k;
}
// * * * * * * * * * * * * * * * * * * * * * * * * * * * * * * * * * * * * * //

dimensions      [0 2 -2 0 0 0 0];

internalField   nonuniform List<scalar> 
106891
(
0.013874557251687230988
0.013868164068535214495
0.013857064739285432017
0.013850829883781267185
0.013839860391872677373
0.013833869039310508348
0.013822489292536896052
0.013816244024317579295
0.01380442653559478712
0.013798245317546897412
0.013783205373567104096
0.018479614994846564613
0.018638471648926280971
0.018799160260230887709
0.018955171244949352294
0.019100795831578535472
0.019231523917907389354
0.019344069023662570361
0.019437090044487292939
0.019510429548503391284
0.019564166215660427905
0.019600313539900875159
0.019621538051818123577
0.01963132908201477983
0.019635302996918943541
0.019637120414502585997
0.019638802549299835126
0.019640435328995634046
0.019641027694435372192
0.019638931533610074626
0.019629230309243694136
0.019599654868604172303
0.019556527583568968087
0.01951265715777720372
0.019473221586357256779
0.019434821427009099648
0.019400596223128684786
0.019366998188888283339
0.019337243958078682848
0.019308496298938753605
0.019283391027852234828
0.019258375604210176135
0.019237383393691180611
0.019217013253472331469
0.019200072958331738937
0.019182831255514041363
0.019168308760386467554
0.019152516204622976187
0.019139111761969709868
0.014673719752894064799
0.014660011782407385977
0.014652400805077849325
0.014638658665431779696
0.014631249964508697553
0.014617817274044854481
0.014610628575133850771
0.014597366631023636629
0.014590197747100384223
0.014577224596583650273
0.014570015840284515976
0.014557443472717028488
0.014550448529425394698
0.014537865742028744515
0.014530874619888670823
0.014517485357561938503
0.014510291858401460838
0.014496499808289762742
0.014489286740802341871
0.014471577036510254247
0.019645375091534186124
0.019817145700497213606
0.01998319572703903535
0.020137787769882790206
0.020276267626709528619
0.020395384065772157595
0.020493805086390440295
0.020571572041176659079
0.020628534414549200976
0.020667084544840771954
0.020689834252950692339
0.020700607141453372662
0.02070504831066526108
0.020706878382008724743
0.020707952128656201968
0.020708772126975163314
0.020708355571916498006
0.020703851727861169452
0.020687323962535093813
0.020645668303414497352
0.020596279156516596881
0.02055103551084572211
0.020507373058118085613
0.020468523597651871321
0.020430507288344352396
0.020396214112141621694
0.020362673282619550563
0.020332754071112481981
0.020302659493675125763
0.020276610852593728723
0.020251448829861400103
0.020230802882889760419
0.02021077449087402278
0.02019421555983038491
0.020176582314128031076
0.020161546302562196459
0.015423278978834739292
0.015407986020644449943
0.015399502701251274739
0.015384082131433527568
0.01537573660759780983
0.015360564828841913668
0.015352439955188477635
0.015337510687490327199
0.015329602811473422644
0.01531502376795122744
0.015307121476593492024
0.015292946241655301642
0.015285196980616746684
0.015270896635490182128
0.015262993512780452521
0.015247563572475289831
0.015239363192254051782
0.015223339648136796631
0.015215051005599736222
0.015194638155656872702
0.020675600071045328182
0.020840894503041558494
0.021000749207325510037
0.021150503551965245397
0.021287819925541837107
0.021410338838368681014
0.021516768924660551604
0.02160614564614386432
0.021678981748370469707
0.021736765686870055531
0.021779754855231758803
0.021810190551683431709
0.021830340010521816219
0.021841955941994443957
0.021848727897341952559
0.021852627058336116656
0.021854172005940745993
0.021853460034557334324
0.021848928971920554554
0.021833214317619226152
0.021787350366500934234
0.021729225469036501928
0.021673278151712303125
0.021623126684181596252
0.021574726442523676356
0.021531329064535278256
0.02148933492719668284
0.021451731209462747418
0.021414594979123222074
0.02138244608154842713
0.021351869745263669237
0.021326671191618459117
0.021302610354142336585
0.021282683839634816692
0.021261879057469110221
0.021244127824511627178
0.016194339083605593238
0.016184865402083786073
0.016167638083392381343
0.016158096147857379382
0.016141085244906417523
0.016131966975012474591
0.01611531884648822327
0.016106500949290815383
0.01609021804100788447
0.016081623262879291003
0.016065626917827757758
0.0160569122476044851
0.016040664292483089448
0.016031719933283120755
0.016014084695444172346
0.016004818269507874867
0.015986347493042230017
0.015976931957404502671
0.015953801913516515998
0.021969697205953167551
0.022177383089482239492
0.022375836440483371642
0.022558443856973843522
0.022719463238731519433
0.022854504189473653225
0.022961539575356862408
0.023040973498948028042
0.023095409758253269972
0.023129105857740656776
0.023146516152357826668
0.023154591364383476926
0.02315792029501134372
0.023158787028787784779
0.023158264974527331681
0.023154595478538840536
0.023142633053717109881
0.023107681535079228896
0.023038657971295093546
0.02297030675224496013
0.02290287314605356575
0.022841644537444350666
0.022783190627850325588
0.022731013791541597457
0.022681070163955110996
0.022636391987311144797
0.022592526587294665952
0.02255395739122211321
0.022516655600298376982
0.022484987086474624018
0.022454889469308923766
0.02243033351947590695
0.022405824752315700588
0.02238536450834032257
0.017039478788035911094
0.017020816490690957729
0.017010284710826328869
0.016991390443436091978
0.016980718070263318281
0.016961848730054490675
0.016951500981263908224
0.016932862121402873778
0.016922962121963827653
0.016904602715970062227
0.016894943700491969057
0.016876758892755291952
0.016866843456888186426
0.016848314338797916456
0.016838023633522259531
0.016817957688764099272
0.016807495245857950739
0.016786744737725560472
0.016776307339152269488
0.016750717791429056008
0.023061517389590474592
0.023261770935528763155
0.023454598477138297735
0.023635265175580844055
0.023797859081224337352
0.023939402909755366777
0.024057733231546533231
0.024151620369408093036
0.024222242194714929675
0.024271697749101098923
0.0243049174754399952
0.024324027738275400684
0.024334026659576544344
0.024338626888016901689
0.024339683816460840754
0.024338545157630175897
0.024333812055301731747
0.024320620323802083496
0.024282717677593681355
0.024212657571518608757
0.024145200069853878233
0.024079304956750056943
0.024020306482794007846
0.023963876862149142283
0.023913578393170341341
0.02386366383938571048
0.023819110816226521377
0.023775023179911529414
0.023736722001546747135
0.023699274506566069681
0.023667995352280927351
0.023636748914643783415
0.023610776034249516403
0.017889984970170701856
0.0178784849348313582
0.017857721387380363909
0.01784592605024971218
0.017825091143309192143
0.017813524342693516644
0.017792762482193143214
0.017781440818710230606
0.017760752125185484684
0.017749552554185067665
0.01772873687531029141
0.017717140752038770812
0.017695890952721123057
0.017684107639561175845
0.01766161832364264786
0.017649973708542703033
0.017627109045617123106
0.017615694334324482478
0.017587739341257586229
0.024416387586925304698
0.024610637360800904222
0.024795249823186725491
0.02496404367475289765
0.025113420550567266271
0.025240671175473364252
0.025344023459841165391
0.025423732109986576372
0.025482069589774669627
0.025521470807983226425
0.025547001701221906667
0.025561102809572685407
0.025567908597094946704
0.025569745020132664259
0.0255693856873227994
0.025566481275730305184
0.025558406268030270381
0.025535999082988675157
0.025477558320697670652
0.025409987715434231154
0.025343731415169452187
0.025284583259010166845
0.025228086279026548655
0.025177731130042155933
0.025127824297807410669
0.025083077464092943393
0.02503873135030252467
0.024999654725084183293
0.024961169866045563454
0.024927964951959872414
0.024894617303139188191
0.024866047026129885211
0.018803876718291766962
0.018791595488687976717
0.018769143269558700299
0.018756668472582872786
0.018733891462486426671
0.018721165514027988258
0.01869803717442208163
0.018685122974077920943
0.018661814966330361742
0.018648641753340158139
0.018624875454777430062
0.018611307830873800861
0.018586940542462973558
0.018573547987593141961
0.018548833315029596841
0.01853607580846949876
0.018511527931610767539
0.018499290678380977959
0.018469806182316382548
0.025870050928164953219
0.026057601285029423355
0.026233844536330441083
0.026393901146847479483
0.026535896199479887259
0.026657435819498545571
0.02675667512459726366
0.02683519163271338645
0.026894300867734113186
0.026935525724898101707
0.026963475767614594053
0.026978951750728927955
0.026986225860880862226
0.026988184569726077211
0.026987913239477790556
0.02698458244853280813
0.026972037217128746328
0.026932481022726693226
0.026853467408623231394
0.026777943451637645916
0.026705207261373764549
0.026641385759243584735
0.026579959971755294512
0.026525911156309141953
0.026472505685493440131
0.026425455207082903381
0.026378688596977232367
0.026338152573149503644
0.026296992529662183841
0.026261253478647141046
0.01975450473155026393
0.019730535139828891955
0.019717403353968460111
0.019692907725841524852
0.019679215035285295421
0.019653902265450797632
0.019639449203497968272
0.019613603114534763905
0.019598559517777922739
0.019572124634984769398
0.019556715060606334744
0.019529555645290182925
0.019514837801479667512
0.019488282668762346717
0.019474801273900034515
0.019449177144045041304
0.01943631120700512957
0.019406115697471356535
0.027318000204096474365
0.027517783705331207156
0.027702675768118360106
0.027868396515113271622
0.02801129516132220762
0.028128851486004049359
0.028221816466078162439
0.028291537246206026335
0.028339929159043555917
0.028372275710717799468
0.028390796528702227225
0.028399836902174513398
0.028403242408119842161
0.028404137354421363226
0.028402452205139240571
0.028393032261967873081
0.028360111460645622689
0.028290002564066725477
0.028215495670538409678
0.028147709013558903923
0.028082397863545053435
0.028025320468853018308
0.027970125610179297909
0.027921331673465315387
0.027872702552516663566
0.027829458389413044839
0.027785583241798549048
0.027745900297300448573
0.020817037909103539017
0.020793104438131881223
0.020779831834825041037
0.020755454851870001193
0.020741374695648562981
0.020715805488484419911
0.020700507001950824854
0.020673926405163776249
0.020657896910860770734
0.020630485728384564958
0.020614194993668774614
0.020586542561884604158
0.02057150916826341186
0.020544614438680417617
0.020531181423545943887
0.020505713004830967289
0.020492916362037125882
0.020464841156924051119
0.028919654051652050192
0.029097647461799207302
0.029254443397691766438
0.029387786810341424981
0.029495856104438927109
0.029579615870916710352
0.029642050709828983435
0.02968476044042180767
0.029712656087405732441
0.02972909486136905699
0.029737320323558733004
0.029740838538378815831
0.02974205927526638038
0.029740951821059791182
0.029733232449894255595
0.029705179320885830019
0.029643642983502409283
0.029575764146847670355
0.02951231507518528932
0.029450269535062668924
0.02939580960493880929
0.029344129271326940128
0.029299515444673067399
0.02925584050155077484
0.029216565681254903081
0.029175888702886725035
0.029138008415354948316
0.021712376001128110004
0.021683873266944451996
0.0216625405165443638
0.021632286566047039672
0.021609458315482856644
0.021578353526417681785
0.021553298561026876246
0.021522002693327491052
0.021496344147382336065
0.02146468385012673466
0.021439943645404812428
0.021409004647068963223
0.021385470529350410901
0.021356788898525162074
0.021334430670420595488
0.021306487394219308928
0.021283786269519100465
0.029355841010961111065
0.029531624049906692736
0.029684552711662287594
0.029813411176017306364
0.029916616445622122578
0.029994601920802204525
0.03005066601024942996
0.030088088697577272668
0.030111013820270746133
0.030123776629770816771
0.030129834591578284059
0.030131724245378601473
0.030131535776383427255
0.030130360826748039949
0.030126133944917060647
0.030112359682053165683
0.030070816153063558568
0.030005774976552882644
0.029944316219511522142
0.029882360208395141593
0.029826708672340412898
0.029772894597772336239
0.029728150824832943327
0.029686553864702300287
0.02965205258763303417
0.029617089396115410527
0.029585187347287909138
0.021701382874479480112
0.021678245639472418227
0.021633543813192074312
0.021609421466598194295
0.021563594745632387595
0.021538809032132000959
0.02149214263122528959
0.021467500067470439429
0.021421488238562051004
0.021397079485233436169
0.02135114381749192089
0.021327987523245790086
0.021282634257598069538
0.021260597623808864809
0.021204223704885446361
0.021212734734166096423
0.023867876482573890246
0.024012396689489658164
0.024134582255438831455
0.024234218791468056103
0.024311205919653612606
0.024366420271819597826
0.02440387475794356803
0.024427657831846787823
0.024441820284069663144
0.024449748203915339789
0.02445308399107276251
0.024453063064447784491
0.02445186441919541126
0.024448847559710582683
0.024441859373653111731
0.024423528625691845462
0.024378013101072869284
0.024328424535282500152
0.024278843083810678488
0.024234199061221449456
0.024191502591294419822
0.024154955459925495781
0.024121256520606048496
0.024094371532005449954
0.024070328635656036698
0.024050213913466646914
0.024030482501473032081
0.024012472247293206729
0.017308596744960203645
0.017272273422785804076
0.017252438350426183011
0.017215685934659670508
0.01719568687741617613
0.017158351209982037472
0.017138896247933108757
0.017101518251453950992
0.017082202074382827478
0.017044865660494387671
0.017026040765792841564
0.016988455619484688769
0.016970045929172863225
0.016923161760013013394
0.01693811246622872746
0.022495197021741644705
0.022625694048423052041
0.022729838879066800728
0.022807363690249850968
0.022859907564509607952
0.022892008562996651183
0.022909844659297524949
0.022918675956126469129
0.022921148672248811001
0.022921410585392144182
0.022919760896956017232
0.022914384893892678075
0.022901852248265595902
0.022868134648415385651
0.022801927512402259124
0.022731676838474289271
0.022666840250356080216
0.022604793501132525863
0.022549721420924713489
0.022498437410277492138
0.02245415543350861437
0.022413352880803757289
0.02237933141351666072
0.022348321759564894473
0.022321783647658507976
0.022295814295934027888
0.022271895724163541519
0.016304771095744248488
0.01628912160008975929
0.016259514382558990647
0.016243977806792805896
0.016214626614361311169
0.016199727123029344228
0.016170743345267139107
0.016156023069324960961
0.016126767628828420076
0.01611203581259129311
0.016082235591830921356
0.016067436540355757579
0.01603135359933942003
0.016028160246998525429
0.021669263336868627851
0.021763697877261640318
0.021837043620143416212
0.021890991226487847843
0.021927849332781503
0.021951597165887137136
0.021966444603796483198
0.021974688403904721334
0.021977676362567057783
0.021978190445281375887
0.02197640785947865133
0.021971793918287171876
0.021962078603020730033
0.021937776876756819033
0.021880237108020936243
0.021820396813242250167
0.021762079741460736704
0.021711216991566771595
0.02166326362079760634
0.021622431459235570694
0.021583118712730983701
0.021550326175722236965
0.021519052950093927462
0.021493140889562951934
0.021467028464038650365
0.021444070363576660937
0.015708521227193326247
0.015680574551745381229
0.015666122932213911306
0.015638579331882250523
0.015624949309976559134
0.015597825381375274301
0.015584337715512637176
0.015556847898314414558
0.015542801812795601843
0.015514092002933042858
0.015499564420676497506
0.015465453581834341656
0.015459903747923416442
0.020948828423401757298
0.021027177778184483192
0.021085491154690348681
0.021125644019200640056
0.021151741188813261846
0.021167674203147444217
0.02117591499802042726
0.02117907496592870073
0.021179603797278276356
0.021177720000358914859
0.021172355925736012494
0.021159831344779590767
0.021126467336495771687
0.021063663793466136376
0.021003089733833902458
0.020945495377497163475
0.020895249084042357562
0.020849579062654739064
0.02081025700480249388
0.020773489379921239451
0.020741504865531158047
0.020711930277794811384
0.020686208666869033285
0.020661726039240380093
0.020639170902087573128
0.015081102805499619138
0.015067123525869549269
0.015040733437802392136
0.015027796082333816363
0.015001910497158153432
0.014989174536730090134
0.014962880112258788654
0.014949371345682777035
0.014921484744102715692
0.014907071282948882243
0.0148734436000087962
0.014867917265148106187
0.020351232080111955614
0.020397669516606948409
0.020426494200315718774
0.020442532166403286353
0.020449851506024959574
0.02045281894209226986
0.020453623555521976279
0.020452759314796158802
0.020449361641568020165
0.020440770180711168719
0.020418650277675132881
0.020364959166196218432
0.020299451968143103486
0.020238151643659128831
0.020179208485613990554
0.02012814794031780874
0.02008153695611422998
0.020042466651810399159
0.020005749211294134721
0.019974529956195384572
0.019944963951872649727
0.019919920803336751969
0.019895740909186134665
0.019874274821794764984
0.019567556263304922842
0.01960064082063249849
0.019621423140378409233
0.019633405709921523952
0.019639083795137096677
0.019641155923765397928
0.019641455323668607913
0.019640118199000074911
0.019635634073502970104
0.019624005020492652634
0.019591022341694110109
0.019529126046320351151
0.019469679013779259136
0.019412621093826822743
0.019363180952501619914
0.019318543806005370606
0.01928176251521560719
0.019247989639781165616
0.01921961368997656544
0.019192690014423460787
0.0191697186404598853
0.019147460071889235711
0.019127835570882989469
0.018928728848351776548
0.018947153165903309752
0.01895702425986724865
0.018960948487350266084
0.018961658918568467108
0.018961132293031698198
0.018958375300815281939
0.018949942437683969798
0.018924993568199065253
0.018863525489926397105
0.018797570739403149376
0.01873370222887572531
0.018677544492278902455
0.018626979196408866707
0.018585198441700666316
0.01854747900159261359
0.018515948387376468531
0.01848653097310697796
0.018461495881664090335
0.018437581538859361407
0.018416892821640780398
0.018153550948442127855
0.01815352908577623145
0.018152855777437963691
0.0181500763355750723
0.018139830110818083025
0.018105452461665439562
0.018050464188627112633
0.017995654746285526249
0.017946941327358204021
0.017902540073033112317
0.017865807006447801536
0.017832384727681963033
0.017804366444997454105
0.017777901477859115592
0.017755335042211009555
0.017733689668575310094
0.017715182958444802147
0.017508814544032330618
0.017450482735410829255
0.017395328468195751098
0.017341304636481355561
0.017293294864840415281
0.017249425780356042459
0.017212985811718321122
0.017179878369636237406
0.017152169573301987576
0.01712609355712553863
0.017103911419612653072
0.01708274858729826734
0.017064880216609963626
0.016722111118241015509
0.016686739847801806969
0.016648448372296204001
0.016612871924188366002
0.016578805661923184944
0.016549814770865829
0.016522419069844623135
0.016499027090754927322
0.016476605461553436166
0.016457600399469880098
0.016439316153378742691
0.01642386082389295926
0.0090497587245744314649
0.0088013997098522547824
0.0086952895878080836006
0.0086729056346311218101
0.0086838962983648189387
0.0087656595968022867071
0.0090992649570180612895
0.0096638780507724165308
0.010096083008045498783
0.010379193399686679686
0.010533253580484212147
0.010594775292972742273
0.010606736664010678328
0.010600246488006207293
0.010555839323603493848
0.010389380618328631495
0.010147624768395792361
0.0099569672514599558838
0.0098176432883218620745
0.0097296120814102434599
0.019153284363456576922
0.018049377578952578716
0.017313656556420139315
0.016945496477895824472
0.016827602133297824699
0.016815986978653874734
0.016863268421813345371
0.017120199583944471777
0.017556529049851336138
0.01784344611132782088
0.017979133513744968015
0.01802618612812526
0.018031644698293682744
0.018015654334326971359
0.01792878896684068496
0.017768000265763490148
0.017649550514887528407
0.017575928664246013439
0.017534570940751604412
0.01750649046900308245
0.017485307862126538841
0.01746904064096767295
0.054703702482159971554
0.053732489102794871172
0.051478955160526022883
0.049682248585388902318
0.04864246566918107445
0.048248299141496933662
0.048153174608006055202
0.048175983599010104019
0.048427466555831799599
0.04901988485486589997
0.049386052913890761407
0.049558926760816267298
0.049615053656120795822
0.049606309718643069873
0.049502820674443274995
0.049090902096644649377
0.048426074614343846136
0.047846256206810967859
0.047388444996361883677
0.047053278358086439437
0.046791406708835331374
0.046568020254368312771
0.046370913153689977126
0.046180589934750042314
0.046013751895063390029
0.045889823770004015135
0.26027628041969808059
0.25369828211563527631
0.24921317764925829397
0.24714101781357086796
0.24652321212402014683
0.24665335882331274053
0.2475867991593790618
0.25072768061455263933
0.25373085674795531341
0.25518851877771581149
0.25566357906098141628
0.2556241549620377751
0.25535003648226528572
0.25412816898927836906
0.25168422157337272393
0.24960623442898527413
0.24801398746231881343
0.24691847583051715342
0.24623177108456142936
0.24583498248819646292
0.24561032067347263186
0.24548079800329952738
0.24532550813543629875
0.24509190503609390444
0.24476120759556516115
0.24432160639484629128
0.2438122049566276428
0.24333998879011378702
1.4123038432826753308
1.4002374523203566792
1.3923253279812461969
1.3886552111934575837
1.3877040896447399021
1.388343725885743396
1.3917894852201249112
1.3964857616517447614
1.3986048927018437382
1.3987707136451925649
1.3981155006885559455
1.3962719666057004098
1.3912855908237604652
1.3843973634250292815
1.3782279570503934707
1.372821538255390994
1.3682119563766610426
1.3644425263915784807
1.3614937751185962611
1.3592467055621779704
1.3574345623949397588
1.3557591491449514365
1.35419121019930766
1.3527291744488594283
1.351362287936796136
1.3502106791109638184
1.3491954510846522197
1.3482170238389046268
1.3468688491502303073
1.3445445127807964525
3.887204281529423433
3.8759520147647044119
3.8672599001438641153
3.8604117683436682817
3.8543277155810811152
3.8478959187711176959
3.8402425464840366232
3.8309165782775580489
3.8199353368129220776
3.8078179522247643796
3.7953854531354487278
3.7834496833670718807
3.7725172776331921121
3.7626974680384424055
3.7538270026179270111
3.7456346021269455449
3.7378929681988766198
3.7304776522001006356
3.723282903562925128
3.7161650968833788156
3.7088993338195024307
3.7013562531848296366
3.6935312064160674694
3.6856174011452464967
3.6777237885372495718
3.6699072670041310573
3.6620925271084954211
3.6542228739006681337
3.6463001656616076396
3.6385205072583985952
3.6309217575729322292
3.6236966613312877605
6.2745520565367236543
6.2581814413860685775
6.2424700760224514084
6.2273806335550592195
6.2128544825727685108
6.1988147703012934642
6.1851357423818003056
6.1716716564474696227
6.1583512538550300164
6.1452467068356693147
6.1324998198009446071
6.1201933072771073086
6.1082417181117261151
6.0964675044577258944
6.0846378180437792338
6.0727599856788971877
6.0610744246018333214
6.0497935895281855778
6.0388764072379457204
6.0280484196566090915
6.0169670425656018864
6.0055568509116374898
5.9940662848428036824
5.9828456120193838075
5.9720367261245579371
5.9615214715906841292
5.9510237765643818619
5.9405162615167377282
5.9300926686632884355
5.9200369397034089403
5.9102535817049828282
5.9006994271281918429
5.8909582213031344011
10.18575740053326939
10.090618727717705738
10.000308814469748953
9.9147981658060242438
9.8338098342286386355
9.755972230306060311
7.9375514859082247909
7.9213995136988355483
7.9059635249500050946
7.8911303877587384292
7.8768069390404331642
7.8629001024437190637
7.8492923263306106918
7.8359140757867722371
7.8227946793929392655
7.8100724146299036477
7.7978280948426030861
7.7858922503708258844
7.7738082778596053757
7.7610977434142034426
7.747724974633706907
7.7340460121689567075
7.7205694746044208898
7.7076309563642935174
7.6951003890588536294
7.6824517293381973104
7.6692146928004030215
7.6553868708483081562
7.641424813334072752
7.6278880894563219073
7.614975535669327833
7.6024629493315263318
7.5900632248175616823
7.5777837954446036761
7.5659800976675777306
7.5548780117243703458
7.5443153062865491165
7.5336514263985501216
7.5225046453067125896
7.5105809464573214385
9.3609248245519225406
9.254292873396229524
9.1571876816279171862
9.0705271283966197871
8.993577812147702133
8.9223677748749619099
8.8514492325806948259
7.7760391820178851319
7.7752586205748910331
7.7752731570905542213
7.7754922734919942329
7.7753718765954129566
7.7744149782353897393
7.7721050848362791541
7.7682744850576090911
7.7628600301577890264
7.7557738036727030817
7.7467229039112348588
7.7352745796857877991
7.7212695774756614497
7.7052256810946326837
7.6882432516464698224
7.6714551313736301097
7.6553471851011218874
7.6394425496537250453
7.6227843518762501418
7.6048567763104761852
7.586204215640592885
7.568191677582028376
7.5520820462329325551
7.5382138775406613007
7.5258277116041947252
7.5139316354535861109
7.5020385815943502195
7.4902650720894961012
7.4785937958418173821
7.4664052956674025197
7.4526987651037295279
7.4367715882026184104
7.4188642253464385234
7.3998821500599145651
7.3807978830236020684
1.1233428722824551946e-06
1.1278279937483748182e-06
1.1343419147559803858e-06
1.137889877570534246e-06
1.144514053172473968e-06
1.1486957777849767092e-06
1.1564120914351155094e-06
1.1652546252979952208e-06
1.1759037869365469759e-06
1.1852447682629159319e-06
1.1954760559783462333e-06
6.3755120531521709327e-05
6.3513579774970681181e-05
6.3308619630545912797e-05
6.3146279034037163208e-05
6.3028715292707545399e-05
6.2947849216712337367e-05
6.2894608620281408445e-05
6.2862793316889931431e-05
6.2830080810819210991e-05
6.2771858173320165875e-05
6.2645952916023277604e-05
6.2347229879762135316e-05
6.1518512647848884152e-05
5.8982674093493954242e-05
5.3539493785111307142e-05
4.7864133415325575205e-05
4.2360564180026638202e-05
3.7153391663329991162e-05
3.2321526859860038043e-05
2.7915539304024103239e-05
2.3957851992411721654e-05
2.0453452749533192353e-05
1.7389562945078630138e-05
1.4743661585291190297e-05
1.2482418159981742135e-05
1.0570289081777000189e-05
8.9688810964986803162e-06
7.6431109284524193274e-06
6.5556208833808073932e-06
5.6736582646873627895e-06
4.9628147602999982281e-06
4.3961706851515848119e-06
3.9467092639754229008e-06
3.5954554850139954357e-06
3.3178598739604181023e-06
3.0993457738239898811e-06
1.1301939681200264002e-06
1.1343634782539758062e-06
1.1376931821477007022e-06
1.1409601481301178412e-06
1.143413462932899911e-06
1.1481832501605615394e-06
1.1523552825447145684e-06
1.1575567456383693934e-06
1.1642177212168942442e-06
1.1699388604447894414e-06
1.178497102398655733e-06
1.1832620879334590764e-06
1.1895068773113047937e-06
1.1926174386276547676e-06
1.198187693647010941e-06
1.2020228927889007799e-06
1.2074911321677433328e-06
1.2174882800705235788e-06
1.2259582041380562034e-06
1.2348887878281272868e-06
1.2444153916536048527e-06
6.5059988133747340263e-05
6.50658838463584482e-05
6.510903850729475432e-05
6.529146028975422371e-05
6.5535646702426786901e-05
6.5709085359511468856e-05
6.5802742817274817271e-05
6.5841998231979236163e-05
6.5846941139149258175e-05
6.5834436190671967773e-05
6.5786102850592324386e-05
6.5627620582535026953e-05
6.509107145111578006e-05
6.3312709758231184437e-05
5.8184504104123723216e-05
5.1615108242642997855e-05
4.540717890247553053e-05
3.9617232786976662928e-05
3.4301051571031085147e-05
2.9495903967028169393e-05
2.5214229741275750015e-05
2.1451992095019656662e-05
1.8185562856724030997e-05
1.538058023627185655e-05
1.2991846753997083502e-05
1.0976217629825755839e-05
9.2913919448051870758e-06
7.9018910549658128513e-06
6.7697723173497647035e-06
5.860244760644103308e-06
5.1343282300642375322e-06
4.5603356434750321724e-06
4.107477085226195753e-06
3.7555884636577001835e-06
3.4807919632831236772e-06
3.269030463576137864e-06
1.1861276399662436819e-06
1.1909105835592099459e-06
1.1951449737041941621e-06
1.1989811841055513302e-06
1.2013736989975953147e-06
1.2053248370619946782e-06
1.2090860381729875902e-06
1.2148405537317901298e-06
1.2217383180214313827e-06
1.2284159476511670597e-06
1.237315510324394914e-06
1.2423436698577090175e-06
1.2488080231514253493e-06
1.2517260344903655966e-06
1.2567752063043537961e-06
1.2604568874531359806e-06
1.2641307304613699316e-06
1.2733556273168305901e-06
1.2798033756312947928e-06
1.2877633353271676002e-06
1.296139779971998845e-06
6.6890573399444074108e-05
6.6900858189287510042e-05
6.6973505103357872732e-05
6.7203321465267112055e-05
6.7437894498193517762e-05
6.7600918620958194553e-05
6.7680748542125164307e-05
6.7707073413286281171e-05
6.7702290592111391966e-05
6.7678318740138515585e-05
6.7582898265727646674e-05
6.7221865949576651688e-05
6.5984832360919457831e-05
6.1981906028886994816e-05
5.5114282096479003505e-05
4.8481512611860577873e-05
4.2284736672623717208e-05
3.6596248446795702058e-05
3.145613897295200718e-05
2.6880942919812505278e-05
2.2861651170647896887e-05
1.9374276506756870795e-05
1.6376462847459239498e-05
1.3820663507304379968e-05
1.1657972037814614579e-05
9.850261902316173284e-06
8.3610709421990367824e-06
7.1558888282533662814e-06
6.1899936180020561304e-06
5.4210761484005914716e-06
4.8052513643008056888e-06
4.315332730976945712e-06
3.9260507972234978089e-06
3.6261301200198039388e-06
1.2489422201963116034e-06
1.2541146614343113973e-06
1.2588928601750667452e-06
1.261758991378780994e-06
1.2652986771708380217e-06
1.2688946154259547514e-06
1.2748926384871263617e-06
1.2813412960213761476e-06
1.2883714496104480727e-06