/*--------------------------------*- C++ -*----------------------------------*\
  =========                 |
  \\      /  F ield         | OpenFOAM: The Open Source CFD Toolbox
   \\    /   O peration     | Website:  https://openfoam.org
    \\  /    A nd           | Version:  12
     \\/     M anipulation  |
\*---------------------------------------------------------------------------*/
FoamFile
{
    format      ascii;
    class       volScalarField;
    location    "0.0056";
    object      k_0;
}
// * * * * * * * * * * * * * * * * * * * * * * * * * * * * * * * * * * * * * //

dimensions      [0 2 -2 0 0 0 0];

internalField   nonuniform List<scalar> 
106891
(
0.013874234061402790016
0.01386784867369199141
0.013856754663338339759
0.013850521844503072694
0.01383955111640258577
0.013833552882680844043
0.013822162307517272747
0.01381590265014388981
0.013804070995944639141
0.013797876435983565807
0.013782830835603809491
0.018479975849739056076
0.018638867065224766495
0.018799538688484877802
0.018955489946013967528
0.01910103081268492084
0.019231670930626363486
0.019344133916068081969
0.019437076039259405802
0.019510328969084007877
0.01956396788747110857
0.019600017198427750753
0.019621163103212532763
0.01963091859664242711
0.019634904472433011013
0.019636761365819474512
0.0196384803623352866
0.019640123103730589005
0.019640697138707204072
0.019638552778048098263
0.019628774685386918969
0.019599098167764814754
0.019555981110092719721
0.019512137165446172965
0.019472713662401108792
0.019434301103529283417
0.019400048633442600055
0.019366422123593886317
0.019336652932563092033
0.019307907819631126012
0.019282815971286740298
0.019257821277136450561
0.019236856495760353003
0.019216516255102733535
0.019199603964419532931
0.019182385217585782439
0.019167876518876341557
0.019152090386790984744
0.019138689361694827262
0.014673361297996866115
0.014659650905733363074
0.014652035701353947894
0.014638289275808086948
0.014630877756605544307
0.01461744402201646878
0.014610256881839233864
0.014596998676394037919
0.014589837030520327182
0.014576871665982333443
0.014569672133835928976
0.014557105928357993649
0.014550112442979989957
0.014537526381399431402
0.014530525892454683803
0.014517125957247887375
0.01450991919222409561
0.014496113697786965069
0.01448888718512135465
0.014471170719538130681
0.019645803173577686823
0.019817550856342364823
0.019983537348288935021
0.020138043323019848285
0.02027643060711116843
0.020395457160127129087
0.020493789803084222489
0.020571462374035707349
0.020628323337645537022
0.020666775028370051176
0.020689445386484442424
0.020700179213784940246
0.020704625153085631784
0.020706484148801929807
0.020707586001879857429
0.020708412876751458587
0.020707977072509795718
0.02070341871936132519
0.020686799054834593969
0.020645070362197068953
0.020595722261902500022
0.020550512899112232529
0.020506859440509301457
0.020467986502230920559
0.020429924655835252773
0.020395586362877075881
0.020362017545897899418
0.02033209252964597244
0.020302014349954371208
0.020275998235427705046
0.020250876446644153206
0.020230274514304841249
0.020210286613354468827
0.020193756570184580312
0.02017613699628159965
0.020161099941666579816
0.015422904774458410029
0.015407605427908135573
0.015399113554869427178
0.015383684553939128842
0.015375332742366021321
0.015360158037760064664
0.015352034604592945666
0.015337110296773686507
0.015329210533156764629
0.015314639450722675879
0.015306745527948030852
0.015292574820662593188
0.015284825212735287867
0.01527051989405959001
0.015262605656455624503
0.015247165183096206623
0.015238953052467224536
0.015222919307366973574
0.01521462065345500006
0.01519420279294270322
0.020675967060013733523
0.020841236657835278401
0.021001036403215499887
0.021150723721903238322
0.021287971354401691304
0.021410419992960567914
0.021516774899015597006
0.021606069837764120545
0.021678821508921301831
0.021736522580835977714
0.021779441216172850532
0.021809830273584202703
0.021829957249405736175
0.021841567778631016533
0.021848338159232906508
0.021852224510851499945
0.02185374695708388465
0.021853013713618280045
0.021848461250365547315
0.021832698519765027234
0.021786735541738645044
0.021728643133926594383
0.021672705108088396314
0.021622529446224759975
0.021574081089547132023
0.02153063241426614316
0.021488603745031691072
0.021450991887361440386
0.021413875023199652886
0.021381766022295238538
0.02135124089171899428
0.021326097579845468971
0.021302086874624148738
0.021282195735374691975
0.021261406593523896752
0.021243648221553668165
0.016193941399318456664
0.016184454342521151227
0.016167213598818820641
0.016157661737426977366
0.016140646138622500444
0.016131528847516223013
0.016114886075229088724
0.016106076218796717275
0.016089800661384469349
0.016081211583546139998
0.016065216126644740052
0.01605649817489625264
0.016040243443236224669
0.016031287230544290223
0.016013643359959174595
0.016004368242191792382
0.015985892494827996096
0.015976473137534773217
0.015953343168857936352
0.021970168690510809978
0.022177824823148777067
0.022376223882752770827
0.022558755556524208441
0.02271967496541434442
0.022854593896781665724
0.02296149551527829763
0.023040799107903919135
0.023095125025244585271
0.023128740728137274496
0.02314610564303279383
0.023154163181794310683
0.023157483414752936396
0.023158336913701886572
0.023157792825512293899
0.023154081066699888636
0.023142058279247989389
0.023106969424659319634
0.023037936587321502374
0.022969628521797031545
0.022902232511170232676
0.02284101589529904941
0.022782543390284296786
0.022730325820097315587
0.02268033430900369754
0.022635619208821067261
0.022591742764485691491
0.022553190774610300251
0.022515927955133047123
0.022484312236972919807
0.02245427283182453021
0.022429770245792741978
0.02240530099318181062
0.022384856853004345828
0.017039082795741448961
0.017020407400421270344
0.01700985855439071312
0.016990947154545219672
0.016980261000228185492
0.016961383733889754538
0.016951034202846167187
0.016932399291179761613
0.01692250510537489025
0.016904150034697251748
0.01689449211703395598
0.016876303379717825376
0.016866381329232311287
0.016847844032629965411
0.016837542476073445036
0.016817472293292203001
0.016807007561139716834
0.016786259877953450814
0.016775826311737386531
0.016750243173179985706
0.023061876130315198119
0.023262120197124674936
0.0234549257839982081
0.023635550706896345241
0.023798074185020553356
0.02393951938471890542
0.02405772848709793188
0.024151490440116992614
0.024222006457007089208
0.024271389680621389962
0.024304564668485753587
0.024323640687477495609
0.024333606380486635934
0.024338165224797345815
0.02433917938490252203
0.024338003854397109033
0.024333242824953190547
0.02432001606030520513
0.024281988097254715575
0.02421192585907984765
0.024144498376841214832
0.024078619094815463531
0.024019614144736009531
0.02396315802956767646
0.023912821129502815493
0.023862873033894897029
0.02381830549123000948
0.023774227713463741418
0.023735957342438343542
0.023698555007466107214
0.023667326142017035967
0.023636128039091739567
0.023610192064043550308
0.017889567857757696784
0.017878049705672683506
0.017857266752108934271
0.017845455197062994046
0.017824609661961161172
0.017813037360798516379
0.017792274465554251683
0.01778095309530117879
0.017760263558730230576
0.017749059646552111519
0.017728235647669461639
0.017716630417820983245
0.017695373595304549064
0.017683583764473397026
0.017661096685453812893
0.017649457533364866502
0.017626603945380490274
0.017615200631624933908
0.017587258240023790484
0.024416676216371613339
0.02461093353473505288
0.024795529366907001489
0.024964269993290863492
0.025113556462858635521
0.025240685847036641032
0.025343907590739195995
0.025423505120567971294
0.025481763187847655122
0.025521115959398096157
0.025546611974112072574
0.025560672467297502336
0.025567428920639078543
0.025569217299810736987
0.025568826830748531825
0.02556589688412020181
0.025557800646710291531
0.025535316016359017183
0.025476757115125172465
0.025409212887869965514
0.025342977674944214272
0.025283840875005451909
0.025227340152192506001
0.025176967493385223051
0.025127039467622912933
0.025082278541860479615
0.02503793289449995213
0.024998873843155494656
0.024960418002944829985
0.02492724618292400246
0.024893933195784655882
0.02486539288720153798
0.018803448944658854997
0.018791153845396296046
0.018768684846823705664
0.018756193331505514876
0.018733401553952887253
0.018720663137919892755
0.018697524753118432289
0.018684602094688966545
0.018661285530130258814
0.018648103262297616861
0.018624327895573177666
0.01861075247327418844
0.018586383407681834196
0.018572993178111424362
0.018548289518605216852
0.018535546287425760242
0.018511016617560490521
0.018498795843876415096
0.018469328624009736378
0.025870334759676379133
0.026057879892897060914
0.026234083837269488171
0.026394065030507510988
0.026535955211407117466
0.026657368611462003288
0.026756488180733048465
0.026834915947792224028
0.026893965205016075876
0.026935147800378398536
0.026963054376291623049
0.026978480175990644796
0.026985707933596697616
0.026987633245980951341
0.026987346343943181826
0.026983989882879269584
0.026971380735092521236
0.026931635686421144527
0.026852578464471244662
0.026777072158165177856
0.026704365162020154978
0.026640566860457744192
0.026579152271010372116
0.026525103555299429231
0.026471693985796188736
0.026424642521176953947
0.026377879928224223088
0.026337351791476441842
0.02629620416993616247
0.026260481494768162652
0.019754054335584910612
0.019730072140607742004
0.019716923194007258957
0.019692407325871977286
0.019678692650261276481
0.01965335843764221338
0.019638887009782030058
0.019613024901748363216
0.019597969389746311419
0.019571528027141932293
0.019556117163106772477
0.01952896656475938339
0.019514263485889239008
0.019487729833941917768
0.019474271550549381721
0.019448669516161840726
0.019435820510794794835
0.019405641222268957963
0.027318325476302501853
0.027518059767226162038
0.027702872074915393247
0.027868484064022768648
0.028011252570696341252
0.028128672841557796069
0.028221520443468251643
0.028291155380524370816
0.028339495774343727297
0.028371809924890006166
0.028390302770426711215
0.028399320297784785144
0.028402707938185434849
0.028403588443951233861
0.028401874950231192907
0.028392379674591634864
0.028359272673753505717
0.028289074246586255745
0.028214577038993382541
0.028146816845048893557
0.028081539306303263115
0.028024491306112026684
0.027969315640560977326
0.027920528651149613408
0.027871894924983670744
0.027828637371495452274
0.027784744367459566355
0.027745044392500417541
0.020816572197126941707
0.020792629376271434122
0.020779338070978491809
0.020754933659826751979
0.020740821492608401549
0.020715219222834924118
0.020699892547828901285
0.020673290073417716767
0.02065724850959899106
0.020629836686734889795
0.020613557276385436473
0.020585928322792906853
0.020570923083225934463
0.020544059392513577128
0.020530655699858409158
0.020505208642442332434
0.020492425333470398741
0.020464357994688979481
0.028919827326405345841
0.029097731563466865123
0.02925442057186981859
0.029387637975483774794
0.029495572991782185307
0.029579215284355971777
0.029641565987872646459
0.029684232114107970968
0.029712116381213259098
0.02972855560951286058
0.029736784146004217877
0.029740305635708286225
0.02974152507336141199
0.029740397480358379823
0.029732606811185908341
0.029704382415727152017
0.029642739862983935595
0.029574848921822868841
0.029511406908188066861
0.029449389507962473594
0.029394969835915739365
0.029343327760996816556
0.029298738759233694529
0.029255065887499948768
0.029215769388576454807
0.029175053578156834311
0.029137130064405322022
0.021711912224958822282
0.021683394847038670039
0.021662028401121666971
0.021631735787482238298
0.021608869380860283582
0.021577727882745399018
0.021552653672150388908
0.021521352453044758496
0.021495704294867575695
0.021464070650569336274
0.021439363566704467551
0.021408461040769145162
0.021384963379574215697
0.021356307750016643998
0.021333965040656186624
0.021306024427237314767
0.021283319140250459012
0.029355983943371286027
0.02953168521085091508
0.029684514922542305088
0.029813255042004226797
0.029916327335547082678
0.029994188144394379886
0.030050158084264293884
0.030087526646796314278
0.03011043334199312374
0.030123199643845730011
0.030129270917565773025
0.030131178644665697341
0.030131009317644445733
0.030129844672921065468
0.03012560532016050896
0.030111758571160704423
0.030070041016555460606
0.030004960600814766652
0.029943482877147958865
0.029881524736242958545
0.0298258930390797386
0.029772121485566901272
0.029727430345852338955
0.029685874888123464643
0.029651389137777241223
0.029616407672388794792
0.029584460472309313112
0.021700951318417687624
0.021677788189006823999
0.021633055717009418845
0.021608903824952761102
0.02156305520152712249
0.021538258525813525762
0.021491597089940743526
0.021466973694541126305
0.021420988295137718266
0.021396609567121971374
0.021350705539705909508
0.021327573000988128693
0.021282235498319312939
0.021260205061425712508
0.021203813684896988256
0.021212313497932077516
0.023868058906836762956
0.024012510788894117497
0.024134607003640527745
0.024234127220945006487
0.02431098553512556909
0.024366091130573967749
0.02440348243643523235
0.024427245649464066068
0.024441409805823103435
0.024449336455015339975
0.024452661193423066294
0.024452634403725970191
0.024451435075310629791
0.024448424330826678402
0.024441426678321193089
0.024423024745365125299
0.024377410080280131899
0.024327818709092518396
0.024278234395053686911
0.024233598612728640687
0.024190923686001807036
0.024154409730802909456
0.024120750458035713354
0.024093900692897088356
0.024069872988476868902
0.024049751858048935144
0.024029998282096686618
0.024011965356921120829
0.017308234567640495838
0.017271897328463257926
0.017252050440894704103
0.017215290622113806063
0.017195289459194813136
0.017157960739342333761
0.017138516942048594854
0.017101152861809926914
0.017081851267131877709
0.017044527444948942563
0.01702570869480817331
0.016988124145019788125
0.01696971051755117102
0.016922806920667901598
0.016937746764399345956
0.02249536447620805249
0.022625768985807162559
0.022729776488523884687
0.022807149142874728193
0.022859569813220664142
0.022891607598490772146
0.022909433294661434022
0.0229182709908783179
0.02292074165398349378
0.022920989988154762129
0.022919307967548298299
0.022913897784777377542
0.022901324285914355372
0.022867471194162623804
0.022801212978227989453
0.022730966611822452095
0.022666145640313117154
0.022604119151509248498
0.022549073558578967141
0.02249782062622252693
0.022453572421919771457
0.022412803882064766953
0.022378811030355463124
0.022347815436805851946
0.022321274934432228099
0.022295292017807662871
0.022271362511704993759
0.016304423519566343254
0.016288772540297882796
0.016259167995241796678
0.016243637629750090623
0.016214295186078440947
0.016199404443377089097
0.016170427113938085767
0.016155709877172928779
0.016126454234984207575
0.016111717984626763162
0.016081906285730383777
0.01606709767555126317
0.01603099630351915994
0.016027790660413404611
0.021669324026059741395
0.021763647947561439583
0.021836865460950549006
0.021890709444918922399
0.021927515426530458376
0.02195125613376694082
0.021966108368105429632
0.021974339495680915435
0.021977295789434157791
0.021977774137946125277
0.021975949596062579333
0.021971307475480851557
0.021961560620168973229
0.021937162296875853396
0.02187952879493646266
0.021819716458388919988
0.021761432923935196404
0.021710608401724302424
0.021662691479453113907
0.021621889699432593479
0.021582602129940977459
0.021549829363292829359
0.021518565184452165262
0.021492650982408965238
0.021466530765367995703
0.021443571819452483113
0.015708207042252314567
0.015680271080713601567
0.015665830306711103076
0.01563829607202414651
0.015624670519476826364
0.015597545034682233633
0.015584051647133272123
0.015556545750345108711
0.015542485938576457855
0.015513754853887166962
0.015499213800829938353
0.015465086818582879716
0.015459528639637893158
0.020948829928846179199
0.021027062262753738048
0.021085274432765515468
0.021125367592551878154
0.021151445102874234794
0.021167371845551508081
0.021175597486065358965
0.021178728020516797426
0.021179220561117723803
0.021177286681720405848
0.021171875998442293842
0.021159292268896498501
0.021125789938236268911
0.02106295665794932076
0.021002414060911741428
0.020944868771900208848
0.020894675419494721652
0.02084905137791327745
0.020809763881045034023
0.02077301950949932835
0.020741049568282168836
0.020711479398526390361
0.020685755503301081482
0.02066127005260260871
0.020638721335753854036
0.015080836363242020037
0.015066869166817677822
0.015040487510553710374
0.015027550474001793307
0.015001656318917828276
0.014988907341778573423
0.014962586027755396881
0.014949057364243492976
0.014921143024595589013
0.014906714770919635149
0.014873075417748238269
0.014867545342808629813
0.020351101067632628577
0.020397447581439531045
0.020426214440510844644
0.020442227923442704562
0.020449541465893485148
0.020452504292388207219
0.020453294098505877402
0.020452398097467301696
0.020448953952462836647
0.020440301571071361336
0.020418067941304105656
0.020364246920744406844
0.020298749053849960561
0.020237483116015010653
0.020178591650555802867
0.020127589297877970104
0.020081031942523704104
0.020042002991605464141
0.020005312221115754967
0.019974107578359306253
0.019944545904200441239
0.019919502738555052573
0.019895323966172839131
0.019873867356362710096
0.019567391285265679085
0.019600419041772447482
0.019621165536312552835
0.019633126792429542867
0.019638788679871396065
0.019640844219034305634
0.019641125242958291236
0.019639757151741484703
0.019635231906650400108
0.019623536994688012963
0.019590399290327274034
0.019528464681842674922
0.019469038060363898918
0.019412023169416023349
0.019362638157911647024
0.019318057457587047704
0.019281323726859707357
0.019247583694951032884
0.01921922600332791678
0.019192308452208709652
0.019169338419063763901
0.01914708241731140001
0.019127467749767094324
0.018928523346157116042
0.018946909023803561178
0.018956751353580457431
0.018960653573547071871
0.018961351131379387824
0.018960814134061931141
0.018958034884159303407
0.01894955343878439516
0.018924473588629538157
0.018862872479912126678
0.018796929512016512936
0.018733087696856599164
0.018676977381217905322
0.01862646936085402688
0.01858474283880681352
0.018547065280797490894
0.018515561477923003081
0.018486157144937662156
0.018461128932404181902
0.018437221949944685578
0.018416546020849595272
0.018153251663057437537
0.018153236184862003855
0.018152570093899332571
0.018149781018751552641
0.018139472075262032952
0.018104930072521591145
0.018049904343662534489
0.01799509484261732975
0.017946407226251886308
0.01790205015424550794
0.01786536598047836974
0.017831984585024936857
0.017803994096840428107
0.017777544674816472825
0.017754988898250161078
0.017733354631065737644
0.017714861823435245486
0.017508359591367261832
0.017449992198285246836
0.017394812331932556909
0.017340773893413784223
0.017292773572637115675
0.017248936772784585758
0.017212539666848540587
0.017179471729343337438
0.017151792390488425355
0.017125735990417324112
0.017103569806189378166
0.017082423023438101511
0.017064571364467394365
0.016721768498327294061
0.016686332615260320023
0.016648000575043467308
0.01661240942951629565
0.016578355161215994895
0.016549391691219401263
0.016522025157070269197
0.016498657937406430163
0.016476255673059443663
0.016457268582896113912
0.016439002506161985023
0.016423564816970940422
0.0090482393938803671457
0.0088004548362318330001
0.0086947634791254037323
0.0086725509702200234696
0.0086836390037876645676
0.0087659020961290239071
0.0091010255489661438105
0.0096655271296801053421
0.010097204570873983751
0.010379785846669995278
0.01053341301427839112
0.010594648419711206674
0.010606485432701940816
0.010599926462725414375
0.010555251845243016073
0.010388157539056409179
0.010146506976354887145
0.0099560501650980334776
0.0098169252278306941978
0.0097290663865924938841
0.019148988089631849285
0.018045554139111987663
0.017311216173513378075
0.016944175547622321309
0.01682687578544901294
0.016815418365664486916
0.016863095364479548793
0.017121435488036833988
0.017557646700790179028
0.017844082847636555389
0.017979360598770307428
0.01802617894152421657
0.018031543418433080422
0.018015413144457974315
0.017928073653049450553
0.017767326290820981832
0.017649031764997168831
0.017575532013541238924
0.017534221744514875974
0.017506127404431581773
0.01748489187893276231
0.017468552324075434928
0.054702473896239611761
0.053726028475464267242
0.051470543000834520497
0.049676448218432152359
0.048638961379890412184
0.048246126593063792809
0.048151260312746836656
0.048174197117317206496
0.048427659957173074812
0.049020901055622040365
0.049386903700343390278
0.04955951631485603498
0.049615477705078646353
0.049606608841221443151
0.049502396314068275451
0.049088693814508796431
0.048423946438750468946
0.047844527557672919538
0.047387100793305686475
0.047052152340101252581
0.046790309842923261119
0.046566725215279977657
0.046369167824708908132
0.046178319747491050618
0.046010907114067543799
0.04588641562010269126
0.26024886678680858587
0.25367362556748951352
0.24919617548296285614
0.24713062100410612687
0.24651456002363980602
0.2466440959642094144
0.24758025254747717536
0.25072678350444832507
0.25372376637487126239
0.25517836981377650662
0.25565452859241738492
0.25561853463510425533
0.25534462766547544321
0.25411703175653016507
0.25167266250728892452
0.24959617222239771639
0.24800597273306143609
0.24691252901409310727
0.2462271735277903606
0.24583059271693513681
0.24560515548123856844
0.24547436155826030113
0.24531695025654548514
0.2450802939187143592
0.24474602592128197331
0.24430226527519605106
0.24378899106309592781
0.24331427836216296123
1.4122566604754960284
1.4001929064435760797
1.3922883072721388142
1.38862567966395134
1.387676706917995606
1.3883183469830364665
1.3917731315116004254
1.3964575498206437398
1.3985645786192082429
1.3987271290657072864
1.3980728716422945457
1.3962327739384015057
1.3912420328551742266
1.3843613587539171927
1.378197570378330683
1.3727937358598059081
1.3681866150336094989
1.364421125181292771
1.3614765655321920956
1.3592313161552467271
1.3574166170169994494
1.3557357574123221067
1.3541617619875725431
1.3526948997081547077
1.3513236094231559914
1.3501658762852055684
1.3491429334263902451
1.3481569384625369246
1.3468029858393195664
1.3444753785044500916
3.8872005631159249894
3.8759501974169410232
3.867259440044376273
3.8604118814627534917
3.8543264038777191871
3.8478900269414837432
3.8402281010412453455
3.8308904470186866398
3.8198985245820757939
3.8077765501998359632
3.7953476548560338699
3.7834217677005845815
3.7725006555735185465
3.762688654210974093
3.7538224291055706239
3.745631659275814318
3.7378922075511624712
3.7304801287228643858
3.7232876312202556335
3.7161673200331031275
3.7088934640262465336
3.7013406899456722243
3.6935088262544981674
3.6855927322894790343
3.6776987133629819304
3.6698793377164107277
3.6620576222180396542
3.6541807657291718314
3.6462555771938838234
3.6384791916591319172
3.6308869107241905638
3.6236675605889683283
6.2745719737521188364
6.2582049876636176577
6.2424998813084506821
6.2274176937582002012
6.2128983637713730559
6.1988632746118623729
6.1851842532644187855
6.171717212664557195
6.1583944417129465876
6.1452918644213427868
6.1325510109438887696
6.1202503249781639028
6.1082984345812247895
6.0965172968882317406
6.0846768365374535037
6.0727952447817656889
6.0611157871601877289
6.0498446678139989885
6.0389311497916446925
6.0280941494445832163
6.016995464301692742
6.005571777150774615
5.9940794562009171997
5.9828676457270253408
5.9720687004765187211
5.9615547523074168268
5.9510525231629527454
5.9405429010391079814
5.9301256822531440704
5.9200814121006386515
5.9103062316958689948
5.9007517051859847967
5.891003409774942412
10.185684779877661299
10.090551870629155928
10.000270564030419251
9.9148190082257574574
9.8338906086404840323
9.7560700261131749755
7.9375666211703839181
7.9214294241954466003
7.9060090323893019715
7.8911907645219310226
7.8768802297466908868
7.8629828355867452672
7.8493806815115183539
7.8360061212356351135
7.8228925617902707046
7.8101792725797318795
7.7979419014927984222
7.7860018682342255758
7.7738980473925236581
7.7611583937548420664
7.7477647648104186473
7.7340821624341895557
7.7206186483916541263
7.7076971048927642727
7.695169911123897144
7.6825050200662428068
7.6692426992525666307
7.6553994699682812453
7.641442369697901249
7.6279261067574593014
7.6150330304673152781
7.6025307289614083572
7.5901359434747028843
7.5778694213765174226
7.5660904901856405047
7.5550134568537377078
7.5444593754310949052
7.5337822694274088065
7.5226103985926622286
7.5106652763672920869
9.3611171267972856924
9.2545608480710495058
9.1575417077573124658
9.0709867278099842736
8.9940998602525912275
8.9228435730627246869
8.8517702788326033669
7.7760509173106733272
7.7753580645830080442
7.775439142087717137
7.7757045010843386379
7.7756095471209558667
7.7746578167059743336
7.7723399756688946738
7.7684946074379936931
7.7630617494640876686
7.7559497325341704155
7.7468596696404130597
7.7353608600867840295
7.7213111802950562534
7.705252684834412058
7.688297018490765744
7.6715622724242100716
7.6555008584139612182
7.6396096656480656506
7.6229312737845615899
7.6049828729529371785
7.5863471164904519028
7.568402020918041373
7.5523900644636166035
7.5386095992020978329
7.5262767511679120602
7.5144041826112637494
7.5025269635946711944
7.4907701433761033627
7.4791006273926923242
7.4668788337244595965
7.4531024144869180148
7.4370959127845743808
7.4191340669844629829
7.4001364531420747994
7.3810643129249093874
1.1233521169434099012e-06
1.1278344346474749484e-06
1.1343396511734901712e-06
1.1378756053271790366e-06
1.1444857445881093415e-06
1.1486577575094315348e-06
1.1563810294837034151e-06
1.1652339603697040774e-06
1.1758896154664779412e-06
1.1852367547527268616e-06
1.19549189081076389e-06
6.3754156571891966703e-05
6.3512551206299975139e-05
6.3307689166721881524e-05
6.3145673289313048165e-05
6.3028467629800381681e-05
6.2947814908045237573e-05
6.2894677749107539199e-05
6.286286662210916669e-05
6.2829977385952341445e-05
6.2771402132228923138e-05
6.2644963390300889279e-05
6.2345145260108642883e-05
6.1512843580968740663e-05
5.8964913310190821688e-05
5.3515480935065418361e-05
4.7840649438318690869e-05
4.2337992162571390993e-05
3.7132161195883223225e-05
3.2301914231358194469e-05
2.7897737459762849923e-05
2.3941965358747001292e-05
2.043946241038728924e-05
1.7377368143212681512e-05
1.4733133604686802213e-05
1.2473424911232847796e-05
1.0562697315975442508e-05
8.9625505496708175247e-06
7.637891969436574492e-06
6.5513608606030438076e-06
5.6702079097791120631e-06
4.960038644194259325e-06
4.3939513375082093534e-06
3.9449466963083023143e-06
3.5940536995887000712e-06
3.3167344095099847009e-06
3.0984236866980762784e-06
1.13017614343927315e-06
1.1343484450964865425e-06
1.1376748338586375148e-06
1.1409336995274039108e-06
1.1433836714688552761e-06
1.1481519631364745784e-06
1.1523229902818249392e-06
1.1575353597278414096e-06
1.1642055342705723595e-06
1.1699409026778931161e-06
1.1785010332755004966e-06
1.1832576708583096431e-06
1.1894886424475388472e-06
1.1925837734844921825e-06
1.1981416666208329729e-06
1.2019669367420646127e-06
1.2074517319402658721e-06
1.2174638436786106249e-06
1.2259398265233365888e-06
1.234883408668779289e-06
1.2444304102306137048e-06
6.5059940637883192146e-05
6.5065724843154547829e-05
6.5109166208015439078e-05
6.5292518352221860854e-05
6.5536680551947658737e-05
6.5709884434974385266e-05
6.5803247910951987061e-05
6.58422331348351513e-05
6.5846935727455812378e-05
6.5834175948534476319e-05
6.5785600426221811274e-05
6.5626473880136951874e-05
6.5087332671714932071e-05
6.3300122370576583208e-05
5.8156682198413153925e-05
5.1588230917015924623e-05
4.5381878070558501594e-05
3.9593727667475346155e-05
3.4279528056667187843e-05
2.9476520855478187074e-05
2.5197074269721164128e-05
2.1437023676277780883e-05
1.817261773533848616e-05
1.5369447809724165596e-05
1.2982352127936435665e-05
1.096821852039436639e-05
9.2847479248399382077e-06
7.8964470218387300171e-06
6.7653621696930922716e-06
5.856703211684162145e-06
5.1315016853014657917e-06
4.5580892522459622815e-06
4.1057006382094072069e-06
3.754186149532345843e-06
3.4796820739362111073e-06
3.2681380141452243643e-06
1.1861145152385674562e-06
1.1908999603471373591e-06
1.1951286457931652949e-06
1.1989536167407082502e-06
1.2013403085692888735e-06
1.2052912258535461658e-06
1.2090566746050544346e-06
1.2148223327946514874e-06
1.2217264613992348403e-06
1.2284132836228110149e-06
1.2373073418896205422e-06
1.2423229340432329044e-06
1.2487709954984102144e-06
1.2516731363625726428e-06
1.2567144360616329027e-06
1.2603879091917012483e-06
1.2640764698535610071e-06
1.2733305732522500064e-06
1.2797807645323910258e-06
1.2877567972191888992e-06
1.2961489764261632006e-06
6.6890345894635855339e-05
6.690077263693878964e-05
6.6974061610700617343e-05
6.7204605837009508953e-05
6.7438910513600998885e-05
6.7601533757169138261e-05
6.7680923275791393993e-05
6.7706936330997062774e-05
6.7702027102179275584e-05
6.7678022085028099694e-05
6.7582217513556609224e-05
6.7219291186123168226e-05
6.5975950663549052838e-05
6.1955762098428240545e-05
5.5085802519121860796e-05
4.8454409734083908503e-05
4.2259531683602428326e-05
3.6573149334409093354e-05
3.1435317805395762236e-05
2.6862510565678661417e-05
2.2845576905702377334e-05
1.9360393495334936282e-05
1.6364550958196998016e-05
1.3810511545588908137e-05
1.1649411059079469688e-05
9.8431513243967816564e-06
8.355261086658530791e-06
7.1512019547053788884e-06
6.1862364886901179405e-06
5.4180622506922113327e-06
4.8028272075101587397e-06
4.3133849951136963419e-06
3.9245017551834232743e-06
3.6249110530299142193e-06
1.2489301817658356498e-06
1.2540958487649069223e-06
1.2588641648031131787e-06
1.2617274196589352695e-06
1.2652713297946209343e-06
1.2688759723899785387e-06
1.2748817637525354975e-06
1.2813298745453023075e-06