/*--------------------------------*- C++ -*----------------------------------*\
  =========                 |
  \\      /  F ield         | OpenFOAM: The Open Source CFD Toolbox
   \\    /   O peration     | Website:  https://openfoam.org
    \\  /    A nd           | Version:  12
     \\/     M anipulation  |
\*---------------------------------------------------------------------------*/
FoamFile
{
    format      ascii;
    class       volScalarField;
    location    "0.0056";
    object      pMean;
}
// * * * * * * * * * * * * * * * * * * * * * * * * * * * * * * * * * * * * * //

dimensions      [1 -1 -2 0 0 0 0];

internalField   nonuniform List<scalar> 
106891
(
98704.70669863949297
98705.42373155686073
98706.175259461859241
98706.961717238620622
98707.783936368388822
98708.642847475144663
98709.539751867108862
98710.476184221697622
98711.452797251724405
98712.47006171727844
98713.520284584999899
98690.486662839102792
98690.43250966881169
98690.362554371211445
98690.279806072561769
98690.189782854024088
98690.097571447186056
98690.005883757883566
98689.914819382291171
98689.823253527458292
98689.731116904848022
98689.640757062094053
98689.556395011532004
98689.481300786268548
98689.415230826649349
98689.354203130365931
98689.292049758616486
98689.223523041946464
98689.147139047883684
98689.065600520742009
98688.983508274061023
98688.904126451991033
98688.827138832290075
98688.749129867108422
98688.666527179026161
98688.578438701995765
98688.487563001326635
98688.398782640491845
98688.316987075173529
98688.245345535353408
98688.184542634786339
98688.133699614656507
98688.091393244088977
98688.055560663793585
98688.023687038265052
98687.993320735331508
98687.962337742268573
98687.929564606994973
98687.894749701430555
98702.889452984265517
98703.378133185920888
98703.891950033605099
98704.432246758107794
98705.000436437330791
98705.597863810078707
98706.22571720200358
98706.884955215893569
98707.576220817514695
98708.299912899703486
98709.056245501997182
98709.845506653204211
98710.668059451243607
98711.524734935810557
98712.416550584675861
98713.344775582430884
98714.310786302448832
98715.314907167572528
98716.357502305370872
98717.431211973103927
98690.441901756639709
98690.374163982225582
98690.294621108463616
98690.20782347045315
98690.11792956678255
98690.02741668112867
98689.936771650449373
98689.84551838398329
98689.753978702618042
98689.664479196580942
98689.580615451719495
98689.505079892682261
98689.437565102562075
98689.374655005216482
98689.311516746354755
98689.244159413006855
98689.171867063763784
98689.097346253416617
98689.024172886434826
98688.953687314409763
98688.883494195892126
98688.808654351858422
98688.725301097947522
98688.633128771471092
98688.536014711440657
98688.440488271415234
98688.353170216782019
98688.278517498576548
98688.217908399004955
98688.170371883519692
98688.133481582903187
98688.104036912132869
98688.078152725705877
98688.051902985665947
98688.022361851733876
98687.988426910203998
98706.126712165729259
98706.659673156798817
98707.216539748493233
98707.79881252280029
98708.40809573068691
98709.045854390424211
98709.71323412770289
98710.411045686079888
98711.139777655320358
98711.899685535870958
98712.690861116789165
98713.513531494085328
98714.368063093090313
98715.255269854460494
98716.176158795322408
98717.131945802888367
98718.123949054148397
98719.15227566579415
98720.217144710724824
98721.311213453984237
98690.427636023916421
98690.362475530666416
98690.288095452764537
98690.207811866916018
98690.124193800744251
98690.038758794151363
98689.951996991861961
98689.86428440338932
98689.776606055165757
98689.690959091938566
98689.609903698423295
98689.535070684069069
98689.466029539747979
98689.400318525222247
98689.334778906326392
98689.267247637544642
98689.19805923520471
98689.129677967604948
98689.064305453124689
98689.001477218873333
98688.937418232686468
98688.866906157694757
98688.785906512421207
98688.694323774354416
98688.596401102593518
98688.499240974822897
98688.410133543307893
98688.334371333403396
98688.274050634310697
98688.228298929345328
98688.194299764872994
98688.168072578453575
98688.145079026624444
98688.120872836880153
98688.091930039154249
98688.056872539164033
98709.975804378511384
98710.572264228365384
98711.192950990938698
98711.839529939039494
98712.513552278891439
98713.216229439000017
98713.948310924912221
98714.710131158164586
98715.501849903928814
98716.323600894334959
98717.175709826406091
98718.058624713332392
98718.973118027046439
98719.92008227018232
98720.900529817954521
98721.915568497352069
98722.964963298771181
98724.048735109987319
98725.15945417562034
98690.324832932950812
98690.258348498580744
98690.18828307534568
98690.114873044571141
98690.037928274119622
98689.957734566778527
98689.875513373102876
98689.793306838982971
98689.713570826977957
98689.638245737849502
98689.5676105760067
98689.500063990388298
98689.433277136311517
98689.365449341654312
98689.296663866713061
98689.228775029216195
98689.164321079835645
98689.104433778775274
98689.04748004936846
98688.989028692769352
98688.923605626172503
98688.847427750428324
98688.760508270002902
98688.666776102225413
98688.572748638936901
98688.485716795810731
98688.411354378535179
98688.352070519526023
98688.307157485804055
98688.273862396847107
98688.248256863211282
98688.225851838040398
98688.202227915768162
98688.173733158211689
98712.704361648458871
98713.316186547497637
98713.949290734206443
98714.605348679513554
98715.286071825976251
98715.992988821395556
98716.727261310661561
98717.489606755028944
98718.280394480432733
98719.099856484404881
98719.948231870788732
98720.825990025536157
98721.733752460437245
98722.672378333765664
98723.642701065997244
98724.645448512615985
98725.681307765611564
98726.749493913957849
98727.849661963598919
98728.97417563086492
98690.270950950492988
98690.214775707252556
98690.157664797225152
98690.09766789949208
98690.032787400035886
98689.962293878779747
98689.887505949096521
98689.811504486337071
98689.737894673729897
98689.668729250726756
98689.60343425051542
98689.539401485177223
98689.473969570273766
98689.406042721966514
98689.336966080256389
98689.26986002625199
98689.20750164592755
98689.150508164413623
98689.096951356332283
98689.042664632986998
98688.982809856999665
98688.914331174513791
98688.837226675750571
98688.754221733019222
98688.670065094673191
98688.590436872691498
98688.520249408393283
98688.462159179674927
98688.416264242681791
98688.380788205162389
98688.352809716772754
98688.328660108891199
98688.304298422954162
98716.669832456216682
98717.337971852553892
98718.027470261775306
98718.739968481604592
98719.476987514426582
98720.239758607407566
98721.029186104919063
98721.845846520518535
98722.690113571399706
98723.562299606666784
98724.462940951576456
98725.392755827633664
98726.352652062865673
98727.343414360002498
98728.365480373206083
98729.419123059735284
98730.503071438026382
98731.616678622143809
98732.752256232211948
98690.16003074614855
98690.115613747650059
98690.068401194628677
98690.015086028390215
98689.954366977821337
98689.887906590171042
98689.819547300590784
98689.753408461736399
98689.691712511208607
98689.633755078946706
98689.57653689433937
98689.517067948007025
98689.454416985507123
98689.390246351438691
98689.327739603977534
98689.269124133104924
98689.214461138471961
98689.162011381136836
98689.109280197721091
98689.053838086154428
98688.994010748821893
98688.92924369040702
98688.8603298166272
98688.789602724107681
98688.720557893146179
98688.656805264516152
98688.600959951902041
98688.554081759444671
98688.515666910854634
98688.483961088466458
98688.45667206584767
98688.431346142053371
98720.016203376100748
98720.718109071589424
98721.439753259619465
98722.182525674317731
98722.947825119437766
98723.736936618501204
98724.550945748051163
98725.390741671333672
98726.257133967417758
98727.150889855387504
98728.072762940631947
98729.023371637173113
98730.003319166076835
98731.012939033462317
98732.052174158336129
98733.120924488961464
98734.217566745966906
98735.341251490797731
98736.484444214016548
98690.08144101598009
98690.042776320304256
98689.997414501936873
98689.944546217186144
98689.885719355414039
98689.824247750366339
98689.764322022107081
98689.709242062468547
98689.659434543573298
98689.612596538718208
98689.565435571828857
98689.51559702445229
98689.463010801715427
98689.409497795335483
98689.35675017995527
98689.305218151712324
98689.254402334583574
98689.203556462729466
98689.151907437277259
98689.099001005946775
98689.044711918046232
98688.989045640206314
98688.932362111212569
98688.875766024066252
98688.82080310441961
98688.769146272665239
98688.722173822985496
98688.680734038716764
98688.645117573731113
98688.615202689834405
98724.075379703514045
98724.827747192044626
98725.599306653748499
98726.391297683047014
98727.205068385403138
98728.042026349678054
98728.90353095876344
98729.790812760169501
98730.704909604450222
98731.646686899286578
98732.616697895442485
98733.615135696905782
98734.641793954113382
98735.695947405969491
98736.776873960421653
98737.882459743777872
98739.011841140163597
98740.158139344173833
98690.015966872684658
98689.973719739922672
98689.925748709021718
98689.873557699727826
98689.819679184627603
98689.767394041089574
98689.720078029102297
98689.679440853447886
98689.644549539967556
98689.612388554349309
98689.579764352616621
98689.544693150746753
98689.506701119957143
98689.46625029038114
98689.423659106803825
98689.379042299755383
98689.332908568467246
98689.286191030259943
98689.23995547517552
98689.194759016856551
98689.150218508875696
98689.105557930888608
98689.060234742166358
98689.01421871338971
98688.967907354221097
98688.922467896481976
98688.87990134942811
98688.8425176308956
98727.389770286376006
98728.170693018531892
98728.968680377714918
98729.785074984712992
98730.621594049996929
98731.480102749206708
98732.362415100738872
98733.270123915106524
98734.204404076255742
98735.165935610697488
98736.154779730830342
98737.170488995747291
98738.21219541876053
98739.27854340246995
98740.368433813229785
98741.479578807178768
98742.611175627520424
98743.756858101289254
98689.973874464529217
98689.931581177093904
98689.886880536156241
98689.841536350868409
98689.79850385437021
98689.760915953287622
98689.730821066346834
98689.708078447307344
98689.690425320819486
98689.674260506144492
98689.656176306758425
98689.633916502803913
98689.60630990289792
98689.573209036694607
98689.535472452524118
98689.49477429279068
98689.453194292233093
98689.41269130607543
98689.374528031607042
98689.338940827772603
98689.304983406662359
98689.271062524727313
98689.2355316086323
98689.197416302311467
98689.157398913084762
98689.117993456005934
98689.082801272568759
98731.463931397505803
98732.288550778190256
98733.129745583151816
98733.989174274916877
98734.868930400814861
98735.771192741609411
98736.697839279862819
98737.65011366669205
98738.62845295695297
98739.632465910064639
98740.661075996511499
98741.712853726523463
98742.786072354050702
98743.879536472770269
98744.991168697670219
98746.120673379438813
98747.262794577254681
98690.039902458011056
98690.007705861426075
98689.97370237702853
98689.937551141934819
98689.900765814658371
98689.866655398494913
98689.838517394397059
98689.818007976035005
98689.80458218685817
98689.795817259364412
98689.788751624830184
98689.781036419779412
98689.770979916240321
98689.75710223846545
98689.73841548897326
98689.714629107373185
98689.686437444674084
98689.655530775853549
98689.624306188066839
98689.595070619645412
98689.569007682905067
98689.54561491565255
98689.522815197022283
98689.498064877552679
98689.469670777587453
98689.437786116381176
98689.404959865001729
98735.522839115510578
98736.390308211193769
98737.275034053091076
98738.178868346003583
98739.103555803361814
98740.050464447806007
98741.020350150953163
98742.013304192645592
98743.028764656206477
98744.065645407914417
98745.122607331621111
98746.198032691667322
98747.290913657649071
98748.399549407200539
98749.524091460742056
98750.660340718997759
98690.10545179680048
98690.085910863926983
98690.062453842620016
98690.034567968032206
98690.005466967399116
98689.980225941922981
98689.962467619538074
98689.952149065429694
98689.946318740781862
98689.941403937729774
98689.935357362715877
98689.928101076424355
98689.920170624827733
98689.911330142218503
98689.900551842874847
98689.886875977754244
98689.870130401817732
98689.851332391583128
98689.832213815767318
98689.81447789593949
98689.798890989477513
98689.784946376719745
98689.771153689740459
98689.755400073132478
98689.736153852398274
98689.713739648606861
98689.690670455092913
98689.670838460981031
98739.091857876905124
98739.999401089036837
98740.924537828221219
98741.868318553009885
98742.831494901431142
98743.814407946876599
98744.816941240642336
98745.838541889053886
98746.878344450669829
98747.935420537702157
98749.00876913787215
98750.098107404483017
98751.202523007596028
98752.322713099347311
98753.455442744161701
98690.168212477263296
98690.157155091234017
98690.139159713697154
98690.118103972170502
98690.10038638280821
98690.090303232689621
98690.087248565760092
98690.086910020792857
98690.084675788530149
98690.078526315410272
98690.069479296944337
98690.059911032061791
98690.051457256704452
98690.044209879430127
98690.037381655842182
98690.030426062599872
98690.023597431558301
98690.017433218949009
98690.012221225246321
98690.007882083693403
98690.003592693436076
98689.997931645048084
98689.989450635897811
98689.977340721219662
98689.962211072255741
98689.946290725842118
98689.932868058240274
98742.147682188413455
98743.090114258186077
98744.049149939281051
98745.024981737078633
98746.017535783001222
98747.026480213811737
98748.051368878906942
98749.091732392393169
98750.147302042518277
98751.217849193548318
98752.303774876927491
98753.40487273625331
98754.522221385195735
98755.653140563910711
98690.265239402724546
98690.259231663527316
98690.249044410345959
98690.241166146224714
98690.239685234933859
98690.243633934223908
98690.248208001095918
98690.248505766590824
98690.242577878074371
98690.231867850976414
98690.219670405393117
98690.209109490955598
98690.202005955405184
98690.198684872913873
98690.198821842175676
98690.202073215667042
98690.20779296287219
98690.214721345750149
98690.221323099685833
98690.226128536742181
98690.227952153960359
98690.225899119701353
98690.219727213683655
98690.210366506813443
98690.200080412061652
98690.19148524555203
98745.026309736014809
98745.99826317752013
98746.984423370013246
98747.984351479346515
98748.997676460581715
98750.02423522589379
98751.064096145550138
98752.117694130269228
98753.185584507737076
98754.26888900474296
98755.368000748057966
98756.484158863328048
98757.614977061326499
98690.385446226573549
98690.388032157847192
98690.390310044473154
98690.396051473260741
98690.405042528465856
98690.413374074516469
98690.416528793619364
98690.412463995351573
98690.402514310262632
98690.390103576559341
98690.378957499677199
98690.371925670682685
98690.370471454793005
98690.374978031220962
98690.385183055113885
98690.399710680445423
98690.416111398415524
98690.431803595012752
98690.444697202765383
98690.453262718729093
98690.456575016520219
98690.454872136673657
98690.449723610392539
98690.443403818309889
98690.437741213667323
98747.734846785489935
98748.729006365159876
98749.734430679760408
98750.750780728354584
98751.778234062163392
98752.817436901008477
98753.869544019544264
98754.935850348920212
98756.01798388955649
98757.116697044082684
98758.233223466973868
98759.365352178065223
98690.530725849472219
98690.543311434186762
98690.556292750814464
98690.570187940757023
98690.582625716851908
98690.59007149017998
98690.590551359215169
98690.584902343369322
98690.5758489430591
98690.566690272316919
98690.560497679907712
98690.55968247706187
98690.565501936027431
98690.578088590569678
98690.596242725587217
98690.617402032745304
98690.63850967666076
98690.656837956339587
98690.67048329829413
98690.678446695383172
98690.680914533309988
98690.679309952203766
98690.675636306463275
98690.671102296051686
98690.693121059506666
98690.713105867747799
98690.731691358450917
98690.747949747805251
98690.759950805615517
98690.766440955994767
98690.767771024358808
98690.765344432467828
98690.761280357692158
98690.757984770418261
98690.7578507004946
98690.762700503895758
98690.773636550162337
98690.790563336820924
98690.811965608008904
98690.834999188882648
98690.856567296781577
98690.874146024303627
98690.886177981694345
98690.892286928807152
98690.893404594971798
98690.891092190504423
98690.886246922585997
98690.893456816105754
98690.913566858551349
98690.930409673033864
98690.943440509363427
98690.953052189433947
98690.959885255113477
98690.964382690159255
98690.966992708461476
98690.968768518534489
98690.971515556331724
98690.977551981413853
98690.988665694152587
98691.005009789208998
98691.024880564364139
98691.045373568602372
98691.063654885874712
98691.077589914755663
98691.086145000648685
98691.089652032300364
98691.08896824553085
98691.084214485381381
98691.134206938295392
98691.151052693836391
98691.164954696112545
98691.174267704205704
98691.178314774660976
98691.178604612665367
98691.178402605044539
98691.181278117495822
98691.189490581935388
98691.202969487305381
98691.219548512919573
98691.236126924486598
98691.250073294664617
98691.259801021442399
98691.264950258031604
98691.265646937885322
98691.261407749203499
98691.387256145695574
98691.385639239975717
98691.379181606753264
98691.373254738486139
98691.372092938807327
98691.377115797469742
98691.387000115631963
98691.399024612037465
98691.410486825843691
98691.4195954453171
98691.425297112902626
98691.42696795440861
98691.423574814660242
98691.580598529297276
98691.569079947730643
98691.555238792119781
98691.544835231397883
98691.540803593510645
98691.543045081372838
98691.549284478314803
98691.556897951901192
98691.563918749350705
98691.56902828218881
98691.571102857793448
98691.568565327426768
98695.075120400855667
98694.945528816373553
98694.811244797063409
98694.674795488448581
98694.541073194268392
98694.414144115042291
98694.295565458611236
98694.184291685814969
98694.077380073766108
98693.971880686571239
98693.866269450620166
98693.760974419667036
98693.657591536146356
98693.557760518655414
98693.463717775608529
98693.378858929412672
98693.306232277027448
98693.246592592986417
98693.198082729126327
98693.156517241062829
98695.198855106747942
98695.077513221127447
98694.952141775356722
98694.8217676661734
98694.688205409969669
98694.555282595916651
98694.426183347386541
98694.302838372474071
98694.185679202259053
98694.073724262154428
98693.965267896535806
98693.858667393549695
98693.753112749182037
98693.648865747338277
98693.547619635937735
98693.452719143373542
98693.368684232336818
98693.299104091827758
98693.244139776958036
98693.200697250824305
98693.164295486698393
98693.130674584856024
98695.436723985665594
98695.317146278946893
98695.200845941581065
98695.083303770923521
98694.96143595346075
98694.83442557331
98694.703454104135744
98694.571046463839593
98694.439790362623171
98694.31183407822391
98694.188971502051572
98694.072263593930984
98693.96131844795309
98693.854260214298847
98693.749048319805297
98693.644527978001861
98693.542122514205403
98693.446428435810958
98693.36327574684401
98693.296667043163325
98693.24609010387212
98693.207354547848809
98693.175446841923986
98693.146601140106213
98693.118545760007692
98693.08989043944166
98695.549990893676295
98695.427992538388935
98695.312276625743834
98695.19926082281745
98695.084865948010702
98694.966435319409356
98694.842811806054669
98694.714399741846137
98694.58275851207145
98694.449665818887297
98694.317460959180607
98694.189289262547391
98694.068187973229215
98693.954894482216332
98693.847437715841806
98693.742461515575997
98693.637697684753221
98693.534081924022757
98693.437178449006751
98693.354326977525488
98693.28983446166967
98693.242612470392487
98693.207663769440842
98693.179531295856577
98693.154755944284261
98693.13158824002312
98693.108078435485368
98693.080967387169949
98695.665877156934584
98695.539684681716608
98695.422618173921364
98695.311064739784342
98695.201158558498719
98695.089379286146141
98694.973386406141799
98694.85219670512015
98694.725884618397686
98694.594925690704258
98694.460277776495786
98694.32427123002708
98694.191389664862072
98694.066422329764464
98693.951228949823417
98693.843786077253753
98693.739594453320024
98693.634844367086771
98693.530193904065527
98693.4322894957877
98693.349774331451044
98693.287465403889655
98693.243344592308858
98693.211599079833832
98693.186630674957996
98693.165339537357795
98693.146377814075095
98693.127333830445423
98693.103524671852938
98693.070667378473445
98695.787625302938977
98695.652413620089646
98695.529956753365695
98695.416035023343284
98695.307039265142521
98695.199320720959804
98695.089459848706611
98694.975639400610817
98694.856952195390477
98694.732688194155344
98694.60254050862568
98694.466650586822652
98694.327424593371688
98694.190521326978342
98694.062219067840488
98693.94533933501225
98693.837774351472035
98693.733987165498547
98693.629225359341945
98693.523644666245673
98693.424516481551109
98693.341873606026638
98693.280995797918877
98693.239394259580877
98693.210291533934651
98693.187784176712739
98693.169128001012723
98693.15337070892565
98693.137995111188502
98693.117108327729511
98693.085076760369702
98693.041947602978325
98695.778428813297069
98695.646182354335906
98695.527042313435231
98695.416236651086365
98695.309825905569596
98695.204011598354555
98695.095715201154235
98694.98352533794241
98694.866504943842301
98694.743596711297869
98694.613776561862323
98694.476689256640384
98694.334644984439365
98694.194320948488894
98694.063350325654028
98693.945393118381617
98693.838184023305075
98693.735151907138061
98693.630298973934259
98693.523692023431067
98693.423613342412864
98693.341056781806401
98693.281514209273155
98693.242003593695699
98693.215024495002581
98693.194429028590093
98693.177843244149699
98693.164710642857244
98693.152211245993385
98693.133417334887781
98693.101753057431779
98693.057243274364737
98693.006114453994087
98702.999984305293765
98702.913608030488831
98702.852472040700377
98702.806737884500762
98702.753192195668817
98702.669557637782418
98695.770712510755402
98695.640413419954712
98695.523246516517247
98695.414117836000514
98695.309135000119568
98695.204404257950955
98695.097063526336569
98694.985995345763513
98694.870183444101713
98694.748202121802024
98694.618732959250337
98694.480868177663069
98694.336880011600442
98694.194088694275706
98694.061224620178109
98693.942438703714288
98693.835283954249462
98693.732686092553195
98693.627782107170788
98693.520465005669394
98693.419599599728826
98693.336869059901801
98693.278105311110266
98693.239941776613705
98693.214359589590458
98693.195030359551311
98693.17982151103206
98693.16843462138786
98693.157938066287898
98693.140662688238081
98693.109268780259299
98693.0638028782123
98693.011009514302714
98692.959553173568565
98703.102608546396368
98702.995408178772777
98702.909856293830671
98702.849736398027744
98702.805097001124523
98702.752256467807456
98702.668489704388776
98695.773521247465396
98695.644476374218357
98695.528465252675232
98695.420356382746832
98695.31628511492454
98695.212167127348948
98695.105343969829846
98694.99489145638654
98694.879664301741286
98694.758113556454191
98694.62878619915864
98694.490409857971827
98694.345288663243991
98694.20122729378636
98694.067413577460684
98693.948268869091407
98693.841340088576544
98693.739119134232169
98693.634112368570641
98693.526260015016305
98693.424971527128946
98693.342175232173759
98693.283881534036482
98693.246463572970242
98693.221696537948446
98693.203084941007546
98693.188578813307686
98693.17815398190578
98693.168734894381487
98693.152195838905754
98693.120859939372167
98693.074860594424536
98693.021118044984178
98692.968747308957973
98692.924209044227609
98705.641716658836231
98706.353803904974484
98707.10024458184489
98707.883176518778782
98708.704953191394452
98709.567451869472279
98710.472162306701648
98711.419718532182742
98712.409164379700087
98713.438870589976432
98714.498608908863389
98691.839126549079083
98691.768316442714422
98691.7035128352436
98691.646413003923954
98691.593766484744265
98691.539201524137752
98691.477168078010436
98691.405882927807397
98691.327943648764631
98691.248544817557558
98691.172557223209878
98691.101677672952064
98691.034284377383301
98690.966688915825216
98690.894665578976856
98690.81567070694291
98690.730133390869014
98690.641236879790085
98690.553713928165962
98690.471870614681393
98690.397448512943811
98690.328802553383866
98690.262980431536562
98690.196839406809886
98690.12906110980839
98690.060658454356599
98689.993512130924501
98689.928912311472232
98689.866904735768912
98689.806606528305565
98689.746911833601189
98689.687262838109746
98689.628122471476672
98689.570946274761809
98689.517816050676629
98689.470803022530163
98703.323793839605059
98703.796374715850106
98704.293407370627392
98704.81515780116024
98705.362038771883817
98705.934609863601509
98706.533638734661508
98707.16007901870762
98707.815013521103538
98708.499622546645696
98709.215301477335743
98709.963647242882871
98710.746566021902254
98711.565909859578824
98712.423559490664047
98713.320940791978501
98714.25908757232537
98715.238305445454898
98716.25732011233049
98717.314445547497598
98718.399827911096509
98691.814907890104223
98691.745597815533984
98691.682704299280886
98691.626802986327675
98691.574409052016563
98691.520014419802465
98691.459325990916113
98691.391795118310256
98691.320578481143457
98691.250407257961342
98691.18462435346737
98691.12331566766079
98691.063511675354675
98691.000538025502465
98690.929883363103727
98690.849356621009065
98690.760521848904318
98690.667623867659131
98690.576322211141814
98690.491803363329382
98690.41661797677807
98690.350000147416722
98690.28897470087395
98690.230222402009531
98690.171900852452382
98690.113224680259009
98690.054459594786749
98689.996100418647984
98689.938145075677312
98689.880326436381438
98689.822500843089074
98689.764809411251917
98689.707893302896991
98689.65301177839865
98689.601956365149817
98689.556690597353736
98706.532773574086605
98707.052764194915653
98707.594396498214337
98708.157737413159339
98708.743273894127924
98709.351956171158236
98709.985089814916137
98710.644235817904701
98711.33112473442452
98712.047546882517054
98712.795295347925276
98713.576078918544226
98714.391590092607657
98715.243356537015643
98716.132846050750231
98717.061029131014948
98718.028438401117455
98719.035011173589737
98720.079151209836709
98721.159199055517092
98722.265756472042995
98691.701684553961968
98691.641239410673734
98691.586867919191718
98691.535618607784272
98691.483452236978337
98691.427532526126015
98691.368085103662452
98691.307879653439159
98691.250206885539228
98691.196513826580485
98691.145042276679305
98691.09157308464637
98691.031185561339953
98690.960114068147959
98690.877366826505749
98690.785518233416951
98690.689612693691743
98690.595507022473612
98690.508638549727038
98690.432265588402515
98690.366230162238935
98690.308533200091915
98690.257100213813828
98690.209090066884528
98690.161531815858325
98690.112606612383388
98690.06130421096168
98690.007444759074133
98689.951745194688556
98689.895566528939526
98689.840219193734811
98689.786706663944642
98689.736021648859605
98689.689333346337662
98710.337994772271486
98710.921159567136783
98711.523273757658899
98712.144894132085028
98712.787292028297088
98713.452280835728743
98714.141970145225059
98714.858587805429124
98715.604334473857307
98716.381273196966504
98717.19117811365868
98718.035600216695457
98718.915716242860071
98719.832532353029819
98720.786606881738408
98721.778114060754888
98722.806810670459527
98723.870957527135033
98724.969021279510343
98726.092099734203657
98691.632267114808201
98691.573963894872577
98691.52112293317623
98691.472283035924193
98691.425560758114443
98691.379495056040469
98691.333928617663332
98691.289775605328032
98691.247666372189997
98691.20660911113373
98691.163186757301446
98691.112950436843676
98691.052072788399528
98690.97866996776429
98690.893491191483918
98690.800013940228382
98690.703524362950702
98690.609445384863648
98690.522637434289209
98690.446541659039212
98690.382392693296424
98690.329537475248799
98690.285658855296788
98690.247016616383917
98690.209360931970878
98690.169142778599053
98690.124172351512243
98690.073970644676592
98690.020074271596968
98689.965363613009686
98689.912667475931812
98689.86372528175707
98689.819248664673069
98689.779543010750785
98713.637556545902044
98714.259420686328667
98714.898412383961841
98715.555017060469254
98716.23049950497807
98716.926805609284202
98717.646334547520382
98718.391630071186228
98719.165113244671375
98719.968950255090022
98720.804924732146901
98721.674516585466336
98722.578782163807773
98723.518469508475391
98724.49378968703968
98725.504550476412987
98726.550320749578532
98727.629314907637308
98728.740343781915726
98729.875128842497361
98691.483390333814896
98691.434369076232542
98691.392272868106375
98691.356877126963809
98691.327178412015201
98691.301724386707065
98691.278304943189141
98691.25386979067116
98691.224236271198606
98691.185203578759683
98691.133297067222884
98691.067091471893946
98690.987945556553314
98690.899283772465424
98690.805606582260225
98690.712196014079382
98690.62400700438593
98690.544443254228099
98690.475151781065506
98690.416757004117244
98690.368956805657945
98690.330163915787125
98690.297247779861209
98690.265721570161986
98690.230986052833032
98690.189947927574394
98690.142219085959368
98690.090263002086431
98690.038135518945637
98689.989547483884962
98689.946636302251136
98689.909921118072816
98717.600320526122232
98718.275137992066448
98718.9667747940548
98719.676175428350689
98720.404944067297038
98721.155153233601595
98721.929138304752996
98722.729240723885596
98723.557674316878547
98724.416351984240464
98725.306811514688889
98726.230096925151884
98727.186909827199997