/*--------------------------------*- C++ -*----------------------------------*\
  =========                 |
  \\      /  F ield         | OpenFOAM: The Open Source CFD Toolbox
   \\    /   O peration     | Website:  https://openfoam.org
    \\  /    A nd           | Version:  12
     \\/     M anipulation  |
\*---------------------------------------------------------------------------*/
FoamFile
{
    format      ascii;
    class       volScalarField;
    location    "0.0056";
    object      pPrime2Mean;
}
// * * * * * * * * * * * * * * * * * * * * * * * * * * * * * * * * * * * * * //

dimensions      [2 -2 -4 0 0 0 0];

internalField   nonuniform List<scalar> 
106891
(
159869.66963195800781
159847.40818977355957
159834.07198524475098
159828.33526611328125
159836.06782531738281
159860.8838062286377
159912.67156028747559
159990.62814140319824
160099.02253150939941
160240.46216201782227
160396.84604263305664
540494.33829689025879
538716.16419982910156
536943.42335319519043
535169.99753189086914
533389.83010673522949
531598.31770896911621
529793.47368621826172
527975.4948558807373
526147.28380966186523
524314.92140007019043
522484.3128776550293
520657.41492462158203
518833.3700122833252
517012.12246894836426
515193.68015098571777
513375.00408363342285
511551.73202896118164
509722.53151893615723
507890.50610542297363
506062.22998237609863
504245.19336891174316
502442.41577339172363
500651.43966865539551
498870.27366256713867
497102.48719596862793
495356.27529335021973
493639.70489311218262
491957.66447830200195
490311.32293128967285
488697.07939720153809
487104.97377777099609
485522.0195369720459
483940.51779174804688
482361.77150344848633
480789.74519348144531
479222.98567962646484
477654.89908790588379
476079.7720832824707
161155.94034194946289
160918.60024070739746
160705.74159812927246
160515.00020217895508
160347.10110282897949
160205.34098052978516
160093.35507965087891
160012.21572113037109
159958.21997451782227
159923.51012229919434
159898.40158653259277
159876.61657524108887
159855.69920539855957
159841.1416130065918
159837.53190422058105
159855.89763832092285
159897.80362510681152
159968.75580978393555
160072.73038291931152
160191.89838600158691
538473.83974075317383
536693.30190849304199
534915.0606803894043
533129.86812591552734
531333.06721496582031
529526.00169563293457
527712.18827629089355
525896.00881004333496
524083.88666343688965
522280.91098785400391
520485.84322929382324
518694.37908935546875
516905.55288887023926
515120.60849761962891
513336.91912460327148
511548.63344192504883
509753.14051818847656
507954.07342720031738
506158.89105224609375
504373.71554183959961
502599.03591537475586
500831.56340599060059
499070.81757926940918
497321.90185356140137
495593.09087944030762
493891.53267288208008
492220.9317626953125
490581.64896011352539
488970.06729125976562
487376.4937744140625
485786.43202972412109
484188.40143775939941
482580.88319778442383
480970.32082748413086
479362.46137237548828
477756.85835647583008
161367.72983932495117
161129.95570373535156
160914.6432056427002
160718.52790641784668
160542.52783203125
160390.818603515625
160267.98611450195312
160175.70455551147461
160110.48843574523926
160064.41465950012207
160027.52751541137695
159992.74314117431641
159956.46987342834473
159922.63106155395508
159894.98318672180176
159884.00556945800781
159892.50400161743164
159926.75174522399902
159992.03207588195801
160071.48375129699707
538459.14455413818359
536644.86112213134766
534832.3004093170166
533010.9140567779541
531178.94519996643066
529343.21993255615234
527511.12653923034668
525688.35770988464355
523880.80024147033691
522091.27791213989258
520315.2041130065918
518545.61933708190918
516781.66082572937012
515026.31681823730469
513277.41956329345703
511526.87662506103516
509770.00420379638672
508011.00424766540527
506258.08224487304688
504515.79147720336914
502782.59474182128906
501054.79192352294922
499331.50886917114258
497615.96106147766113
495913.63181686401367
494230.59647178649902
492570.92594337463379
490935.52713775634766
489321.60192680358887
487721.20554542541504
486120.48775100708008
484505.2144947052002
482870.5207633972168
481223.94175338745117
479577.0042667388916
477934.79450988769531
161476.09868240356445
161256.36360359191895
161056.61269569396973
160875.14811515808105
160713.83245277404785
160575.90950012207031
160463.12237548828125
160373.46014595031738
160301.24626922607422
160238.8011646270752
160180.3948860168457
160122.67797470092773
160068.32991409301758
160019.57980346679688
159984.92193222045898
159966.78739738464355
159971.09830474853516
160003.78870964050293
160049.13220405578613
536865.4873218536377
534993.87653350830078
533110.70013046264648
531219.98930168151855
529334.46864891052246
527464.65829849243164
525616.20613288879395
523793.72368240356445
521998.66548728942871
520225.4693775177002
518466.82595252990723
516721.49621391296387
514992.42126846313477
513277.31224250793457
511567.42620277404785
509856.5240364074707
508147.53160667419434
506447.56915283203125
504759.32972145080566
503079.24859619140625
501402.23922348022461
499725.42593574523926
498049.11728477478027
496377.76486778259277
494718.55094146728516
493076.64419555664062
491451.40381240844727
489838.03192329406738
488229.24905204772949
486613.60627365112305
484977.94059371948242
483316.77645683288574
481638.14488792419434
479956.92808532714844
162275.88983154296875
162005.77978515625
161767.59604263305664
161555.02196884155273
161363.43281364440918
161190.71842384338379
161036.73547172546387
160901.70376586914062
160784.22866821289062
160680.82409477233887
160586.60320854187012
160498.23201560974121
160413.83751678466797
160335.90452003479004
160265.60819625854492
160209.2156925201416
160167.95384216308594
160146.57978630065918
160151.21148872375488
160167.57793617248535
537405.36275863647461
535463.88415908813477
533509.49867820739746
531550.81926155090332
529604.33015823364258
527682.96479606628418
525793.05575942993164
523938.42636299133301
522121.43241691589355
520339.69058799743652
518587.20059776306152
516859.63804817199707
515155.31647491455078
513470.63108444213867
511798.71355628967285
510134.81761169433594
508480.95022583007812
506841.27941513061523
505214.53261756896973
503593.49427604675293
501970.0721549987793
500338.80369758605957
498699.62785148620605
497059.98122787475586
495431.05496406555176
493818.29506683349609
492216.43671417236328
490614.26335716247559
489001.73282241821289
487370.4332447052002
485712.11458969116211
484024.67561149597168
482318.19206809997559
162789.45369911193848
162517.22431373596191
162275.54574775695801
162059.42684173583984
161864.4879322052002
161687.87824058532715
161528.08400535583496
161383.63083839416504
161252.22038650512695
161130.7142505645752
161017.16441535949707
160910.55077743530273
160813.08272361755371
160725.13746452331543
160650.89555549621582
160590.02836799621582
160545.69002342224121
160523.73034286499023
160511.41639137268066
536253.07994842529297
534233.74019813537598
532211.80557060241699
530204.59115028381348
528227.48798942565918
526288.63711357116699
524391.69301223754883
522539.79935073852539
520734.70950698852539
518974.21630668640137
517252.52794075012207
515562.84393692016602
513898.95052528381348
512256.01825141906738
510632.42676162719727
509029.91779518127441
507448.67746734619141
505881.46687316894531
504315.18457412719727
502738.68272590637207
501148.03947257995605
499547.37266159057617
497948.0333366394043
496362.59904289245605
494793.78047180175781
493229.12492370605469
491649.32226943969727
490040.45715713500977
488397.31224250793457
486719.23690414428711
485010.7144832611084
483285.0450496673584
163855.21596908569336
163546.58182716369629
163268.71924018859863
163017.76915740966797
162789.55276489257812
162581.03380584716797
162390.78061866760254
162217.87326049804688
162060.81184196472168
161917.14331245422363
161785.13809967041016
161663.71556282043457
161554.12640380859375
161455.61540031433105
161370.21138954162598
161295.96810150146484
161234.20374870300293
161189.96368026733398
161151.34076690673828
535245.49917411804199
533163.81506156921387
531096.46891212463379
529061.21786689758301
527068.83739852905273
525122.74172973632812
523224.67346572875977
521378.2976188659668
519586.29098701477051
517845.88252449035645
516148.96843147277832
514487.39613151550293
512857.21111869812012
511258.17315101623535
509690.43796539306641
508149.50528717041016
506622.37800025939941
505092.20537185668945
503549.29945373535156
501996.10333824157715
500441.86185455322266
498896.59280586242676
497366.41952133178711
495847.05977058410645
494321.24670219421387
492766.732666015625
491168.97881698608398
489525.74059104919434
487842.96026992797852
486131.32817649841309
164834.56071281433105
164523.3753776550293
164238.10632514953613
163975.64325523376465
163733.63707160949707
163511.09898376464844
163307.77697372436523
163123.36296081542969
162956.87246131896973
162807.47305297851562
162673.95236396789551
162556.09095001220703
162451.35084915161133
162359.37351989746094
162276.76617240905762
162203.31473922729492
162143.13794326782227
162084.5224552154541
534391.04698371887207
532257.20979499816895
530160.46342658996582
528114.3773136138916
526120.98162078857422
524175.92936515808105
522279.28630828857422
520437.16154861450195
518653.2476806640625
516924.68121528625488
515246.30175590515137
513613.50850105285645
512022.12429809570312
510467.69657135009766
508942.62881660461426
507432.08045768737793
505919.55237007141113
504399.00032043457031
502878.0793571472168
501367.86894989013672
499872.58758926391602
498388.57087135314941
496905.46861839294434
495406.29829025268555
493871.48042869567871
492288.12722396850586
490655.70536231994629
488983.13747978210449
166403.22969627380371
166063.27983856201172
165748.14491271972656
165455.87713050842285
165184.45781707763672
164932.71707534790039
164700.43739891052246
164488.13257789611816
164296.33103942871094
164125.5866641998291
163975.38933181762695
163844.82535171508789
163730.19488143920898
163629.20173263549805
163537.26170539855957
163452.89546585083008
163379.66692352294922
163306.58161163330078
533771.24832534790039
531615.69148254394531
529516.31980323791504
527473.78956031799316
525481.53321647644043
523538.12747764587402
521649.80832862854004
519822.57755851745605
518057.96882247924805
516354.05255508422852
514705.61486053466797
513105.12399101257324
511546.3992919921875
510023.1807689666748
508522.8198070526123
507028.57436943054199
505531.97294998168945
504038.08016204833984
502555.53491973876953
501085.6163215637207
499621.51914978027344
498152.32036590576172
496664.55488395690918
495144.50652885437012
493582.18139457702637
491974.06155204772949
490323.19032859802246
167943.17877769470215
167604.24228286743164
167286.59643173217773
166989.52098083496094
166712.33157730102539
166454.87085723876953
166217.76852035522461
166001.96767234802246
165808.46017837524414
165636.8968677520752
165486.09727478027344
165352.43666458129883
165233.46707725524902
165125.16272926330566
165025.86904716491699
164938.53532409667969
164852.01119232177734
537814.3984375
535580.81005477905273
533388.62622833251953
531248.35794639587402
529164.60508918762207
527137.02435302734375
525166.94446754455566
523258.86413764953613
521415.11335754394531
519632.96261596679688
517907.17170143127441
516232.60141372680664
514606.02212333679199
513027.42439079284668
511496.70372772216797
510005.1296329498291
508534.56587219238281
507068.35905265808105
505600.87558746337891
504134.88675498962402
502672.61557006835938
501211.58601379394531
499744.96994972229004
498262.8733081817627
496754.52498245239258
495210.06707191467285
493621.24034309387207
169795.58856964111328
169464.06974792480469
169150.16008758544922
168854.2084789276123
168577.01421928405762
168319.68284797668457
168082.99920272827148
167867.13205337524414
167670.81800651550293
167492.43208122253418
167329.3320426940918
167180.86726951599121
167045.8526496887207
166924.07294845581055
166818.42228698730469
166717.01333236694336
539353.10391426086426
537131.4850959777832
534947.28907585144043
532803.94817352294922
530708.80958366394043
528670.36158180236816
526695.73211669921875
524788.62408828735352
522945.75787925720215
521155.94825172424316
519407.26801681518555
517695.54393577575684
516026.21772575378418
514409.12432479858398
512849.58653259277344
511340.99332046508789
509865.38897705078125
508402.72655868530273
506940.35958099365234
505475.10425758361816
504008.75373458862305
502541.60732650756836
501068.938232421875
499581.30346298217773
498067.52611541748047
496517.20655822753906
494922.52855110168457
493281.55619621276855
171385.78986167907715
171062.15953826904297
170755.61587524414062
170466.94185829162598
170196.61495208740234
169944.26650810241699
169708.72211265563965
169487.96845245361328
169280.82195281982422
169086.50788688659668
168906.60677146911621
168742.2083625793457
168593.90856742858887
168464.37537384033203
168342.17221832275391
538725.20907402038574
536560.67241287231445
534429.64325714111328
532338.0062427520752
530298.67785453796387
528322.94198417663574
526414.01481246948242
524564.21457481384277
522756.67436408996582
520975.37044334411621
519217.09269523620605
517493.93387413024902
515823.19244575500488
514214.46160125732422
512663.51146697998047
511154.28417587280273
509667.03707504272461
508187.02852439880371
506707.58215713500977
505227.47060966491699
503745.61595344543457
502256.93857383728027
500752.14546585083008
499219.61966705322266
497648.93625640869141
496034.56657981872559
494378.34879493713379
173122.87320518493652
172807.61530303955078
172510.09210777282715
172229.72935485839844
171965.0269603729248
171713.919189453125
171474.12968826293945
171244.92391014099121
171026.60468673706055
170821.9653434753418
170633.50403594970703
170462.34283638000488
170311.25177001953125
170168.9787425994873
538389.60939788818359
536271.35936737060547
534184.06085586547852
532142.56451034545898
530160.33460807800293
528239.05763626098633
526367.7924976348877
524527.97468185424805
522703.07675933837891
520890.89348030090332
519106.78683471679688
517372.00072479248047
515699.23825454711914
514086.84796524047852
512522.01384925842285
510987.93272399902344
509470.29316711425781
507960.1465892791748
506452.57531547546387
504943.31742668151855
503426.29824829101562
501893.22302627563477
500334.46029472351074
498740.68420600891113
497106.93439102172852
495435.08617401123047
175051.00770378112793
174739.78360557556152
174444.63611030578613
174163.20111656188965
173893.03988075256348
173632.12835884094238
173380.15545272827148
173137.83957672119141
172908.36273956298828
172694.91067695617676
172499.25445175170898
172325.00840187072754
172161.68454170227051
538281.32026672363281
536193.27707099914551
534144.74023246765137
532150.03336906433105
530209.46871566772461
528309.95370864868164
526432.84941673278809
524563.47259330749512
522701.00539207458496
520860.6623363494873
519063.68228340148926
517324.16186141967773
515643.62544441223145
514013.81076622009277
512422.27289772033691
510856.51394271850586
509305.7843189239502
507761.81252098083496
506217.93832778930664
504667.7591495513916
503104.97359657287598
501522.74353790283203
499912.64652442932129
498267.22176361083984
496584.51088905334473
177187.10558128356934
176872.88300514221191
176570.90618896484375
176278.96035194396973
175995.65373420715332
175720.89121437072754
175455.01496124267578
175200.58917808532715
174960.80698585510254
174738.21659278869629
174537.80312728881836
174350.14513206481934
538311.22778511047363
536251.11251640319824
534240.5248908996582
532278.37703895568848
530350.07780075073242
528437.74651145935059
526530.06949424743652
524628.21021461486816
522745.32242774963379
520898.76367378234863
519101.39694213867188
517357.55596923828125
515664.55304527282715
514015.79525947570801
512401.55894470214844
510809.60540199279785
509228.29921722412109
507649.22837829589844
506067.15464210510254
504478.7558479309082
502879.68424606323242
501260.83343505859375
499610.12640380859375
497920.13369941711426
538484.25620651245117
536456.39910697937012
534472.22692489624023
532516.71459770202637
530573.37460327148438
528634.38947105407715
526702.8199291229248
524788.69740104675293
522904.08137130737305
521059.00131607055664
519260.05677604675293
517510.12309265136719
515808.2611141204834
514147.61333656311035
512515.25519561767578
510896.96388816833496
509283.83646202087402
507673.20373725891113
506064.15240478515625
504451.90497016906738
502824.12808418273926
501164.86116027832031
499465.02252197265625
536833.16502571105957
534850.89908981323242
532878.73514366149902
530910.09879684448242
528948.41886520385742
527002.46286773681641
525081.35357284545898
523193.34276390075684
521346.05614280700684
519545.50034332275391
517794.31425476074219
516088.51247978210449
514415.87788581848145
512761.62937355041504
511117.25371932983398
509481.78026008605957
507854.20673751831055
506226.07827186584473
504580.62418937683105
502901.10261535644531
501181.54331016540527
531342.82251930236816
529357.8398323059082
527396.62360000610352
525467.9893856048584
523578.60601234436035
521733.50274658203125
519935.91039276123047
518184.6280632019043
516470.6274356842041
514780.9716968536377
513107.5151195526123
511448.0899543762207
509798.49117851257324
508145.50221252441406
506469.81868743896484
504757.42813873291016
503008.50680732727051
525903.08163452148438
524019.42901611328125
522178.78960800170898
520382.34372329711914
518625.95718955993652
516900.40029525756836
515197.51857757568359
513511.9421501159668
511834.76910209655762
510148.97591781616211
508435.34279823303223
506684.42925453186035
504902.25555419921875
526371.33516311645508
524492.58074188232422
522654.01482009887695
520856.96670341491699
519096.48435401916504
517363.69951057434082
515649.01027488708496
513939.62144088745117
512217.49099731445312
510465.80612754821777
508679.43658256530762
506867.44347381591797
726504.01029396057129
724976.86126327514648
723451.36708641052246
721892.65430450439453
720284.26052665710449
718622.6307430267334
716908.09234428405762
715139.57923126220703
713310.97107887268066
711411.40732383728027
709432.03533172607422
707373.76858901977539
705250.98078536987305
703085.43269157409668
700898.71417236328125
698709.38568878173828
696533.42932510375977
694382.91713714599609
692261.67551231384277
690165.00295066833496
729797.46627616882324
728245.62092971801758
726739.24295997619629
725230.56600189208984
723683.92854118347168
722083.59756660461426
720426.33126258850098
718712.5694637298584
716939.20948028564453
715096.89328002929688
713172.46626663208008
711156.62125968933105
709053.13549041748047
706882.00743675231934
704671.52043151855469
702447.06002235412598
700226.6254711151123
698023.34724617004395
695847.36585807800293
693703.04615783691406
691587.18663024902344
689495.92673873901367
734696.28022193908691
732980.17174339294434
731362.05098724365234
729827.62052536010742
728337.34906768798828
726841.51804161071777
725303.41654586791992
723707.83244895935059
722052.23320198059082
720336.78622055053711
718556.76446914672852
716699.95989418029785
714750.82281303405762
712699.60013198852539
710552.48503494262695
708335.21865844726562
706082.8599967956543
703824.26974678039551
701576.71431732177734
699350.28664779663086
697153.0454158782959
694989.74954223632812
692858.58537864685059
690757.3757438659668
688692.25089645385742
686676.7901496887207
737854.7506046295166
736055.64548492431641
734352.2630558013916
732746.31275939941406
731223.71680068969727
729743.91947174072266
728255.52281379699707
726721.75556755065918
725127.4422721862793
723470.33245468139648
721750.57018280029297
719962.26075172424316
718091.03671646118164
716119.58192443847656
714037.61763572692871
711853.22975158691406
709596.61008453369141
707308.14932823181152
705020.37780570983887
702749.99452781677246
700504.18643760681152
698289.11269569396973
696109.87503433227539
693965.97742080688477
691856.64355278015137
689789.00175285339355
687775.93354034423828
685827.10977745056152
740896.58121490478516
739010.18599128723145
737221.0625
735526.25516510009766
733928.86700820922852
732415.05336380004883
730943.11940956115723
729460.32051658630371
727928.9993724822998
726334.50743865966797
724674.68863487243652
722949.77359008789062
721152.9729061126709
719268.106689453125
717276.16103744506836
715166.52313423156738
712948.88772583007812
710657.72966766357422
708338.27117347717285
706025.67315864562988
703736.28005981445312
701474.91283798217773
699246.06735420227051
697054.96475410461426
694902.0114688873291
692787.6050968170166
690719.38851356506348
688709.19389152526855
686764.98620223999023
684887.92792701721191
743822.10350608825684
741830.82804679870605
739954.60998153686523
738172.92341423034668
736483.98733711242676
734891.76837158203125
733383.03645324707031
731915.34162521362305
730434.67549514770508
728903.43235015869141
727307.02862930297852
725643.52890968322754
723912.92947006225586
722108.11906242370605
720211.89105033874512
718203.90963935852051
716073.10720443725586
713830.22483825683594
711512.35857200622559
709168.41731071472168
706836.27929306030273
704532.01932144165039
702258.30767822265625
700018.18264961242676
697817.14815139770508
695656.68897438049316
693538.13242340087891
691469.54995346069336
689461.85132598876953
687521.40789604187012
685648.40380668640137
683843.48175048828125
744525.94499588012695
742544.4058895111084
740674.94749641418457
738897.94935989379883
737212.80588340759277
735624.29813957214355
734119.04517936706543
732653.99377250671387
731174.58463287353516
729642.93432235717773
728044.60217666625977
726377.71520233154297
724642.20485687255859
722830.40209579467773
720924.1263484954834
718902.17740631103516
716753.45504188537598
714490.04405975341797
712151.56479263305664
709789.2825813293457
707442.44025611877441
705127.31163215637207
702845.16242218017578
700597.8300724029541
698390.93331336975098
696226.62770652770996
694106.44988250732422
692038.58166885375977
690033.5609016418457
688096.62302780151367
686227.30316734313965
684426.54851722717285
682705.66396713256836
864043.68729400634766
860826.9350414276123
857650.98673629760742
854540.45035934448242
851498.04963493347168
848533.63056564331055
744999.1075267791748
743023.91024589538574
741158.83899307250977
739384.57832336425781
737701.14188766479492
736113.77314758300781
734609.40266990661621
733144.75198936462402
731664.68245697021484
730131.28806495666504
728530.53385543823242
726860.2747745513916
725120.33700561523438
723303.2327766418457
721390.33025550842285
719359.66550254821777
717200.13550567626953
714924.4119701385498
712573.17268562316895
710199.070068359375
707842.90534019470215
705520.90146827697754
703233.20902061462402
700980.88432884216309
698769.97896957397461
696602.95863723754883
694481.47075271606445
692413.91434478759766
690410.64187431335449
688476.03228569030762
686609.15937042236328
684811.364501953125
683094.13401222229004
681481.76530075073242
867678.62347793579102
864470.60663986206055
861242.6508617401123
858056.14078903198242
854935.44793701171875
851883.41629028320312
848909.37407493591309
745251.07948684692383
743278.89698028564453
741415.79961013793945
739642.53364372253418
737959.93938636779785
736373.37459182739258
734869.49772834777832
733405.08862113952637
731924.61105346679688
730390.05137634277344
728787.81559562683105
727115.57499504089355
725373.00230026245117
723552.68299674987793
721635.81276321411133
719599.9763011932373
717434.09748077392578
715151.39046287536621
712793.39557838439941
710413.4187126159668
708052.49905776977539
705727.04685592651367
703436.94245719909668
701182.64324188232422
698970.25289344787598
696802.45389366149902
694680.88122940063477
692613.85252380371094
690611.70681571960449
688678.60399055480957
686813.1556396484375
685017.13412475585938
683301.882080078125
681691.74162292480469
680204.60180473327637
159764.15841484069824
159705.3199577331543
159672.50326919555664
159667.32704162597656
159692.6674919128418
159745.16372871398926
159826.89906120300293
159930.76746559143066
160057.60416793823242
160209.20854377746582
160370.10383033752441
539089.63561058044434
537207.90426826477051
535336.44540405273438
533466.38039398193359
531589.77798843383789
529704.64849281311035
527812.37819480895996
525915.87574768066406
524021.09962272644043
522133.86221313476562
520256.48275947570801
518388.00076866149902
516524.92843246459961
514662.11403465270996
512796.29107475280762
510928.67489051818848
509062.22196006774902
507200.23085021972656
505349.00573348999023
503518.66990089416504
501718.0944652557373
499948.21813583374023
498201.94270706176758
496469.61288833618164
494747.48600769042969
493039.73130226135254
491351.16443061828613
489678.56710815429688
488012.43694877624512
486347.45056533813477
484687.36072540283203
483039.06122589111328
481406.02252197265625
479787.80763626098633
478182.04472160339355
476584.93807983398438
161629.89345550537109
161300.11238670349121
161009.07468795776367
160756.26911544799805
160539.19782447814941
160353.38599395751953
160193.07433128356934
160052.5810718536377
159927.95385551452637
159817.87677574157715
159723.93241882324219
159649.02053833007812
159597.18464088439941
159570.11666679382324
159570.63278388977051
159595.93733024597168
159648.38435935974121
159722.09812545776367
159818.04499626159668
159938.53438758850098
160068.21142578125
539011.32255744934082
537115.53623008728027
535237.19455146789551
533361.05220985412598
531475.8673210144043
529581.5528564453125
527684.29737854003906
525790.97077751159668
523908.10733604431152
522039.87698745727539
520186.57740211486816
518346.97399139404297
516518.62463188171387
514695.6964054107666
512871.92432975769043
511045.39111518859863
509217.98017883300781
507392.22084808349609
505572.82670974731445
503768.41377258300781
501988.02878952026367
500234.35691261291504
498501.25119400024414
496778.81036186218262
495062.33526039123535
493354.95483589172363
491660.94658470153809
489976.55867004394531
488292.16821670532227
486603.38077545166016
484915.13246536254883
483234.90553092956543
481566.38946151733398
479908.83444404602051
478258.45893859863281
476610.04604339599609
161868.35721015930176
161529.3146915435791
161228.28219032287598
160964.78619956970215
160736.70321273803711
160540.05210494995117
160369.31720161437988
160218.46907615661621
160082.60695266723633
159959.21853637695312
159848.92768478393555
159754.35528755187988
159679.6688060760498
159626.95844841003418
159599.16582870483398
159594.07232666015625
159614.16126823425293
159654.53676986694336
159716.07151222229004
159801.24533081054688
159894.77481842041016
537240.93061256408691
535345.09450912475586
533452.91525459289551
531551.94443893432617
529646.20540046691895
527748.49482154846191
525869.09689140319824
524010.71906280517578
522169.79183769226074
520342.42371940612793
518530.13742065429688
516736.89072799682617
514959.37963676452637
513186.70908546447754
511409.6750431060791
509626.10444259643555
507838.02568626403809
506050.17751502990723
504271.69345092773438
502513.39997673034668
500779.87659454345703
499065.14008331298828
497356.91641998291016
495646.67975616455078
493935.86762237548828
492230.27196502685547
490528.95269775390625
488824.54426002502441
487113.0982551574707
485398.63988494873047
483687.55569648742676
481982.80797386169434
480283.01320838928223
478583.91972923278809
161970.85321998596191
161656.17852401733398
161376.34292793273926
161130.37999534606934
160915.71756744384766
160727.89457702636719
160561.09547805786133
160409.64602279663086
160269.63452529907227
160140.25798797607422
160023.30865097045898
159922.78145599365234
159841.37785720825195
159782.63244438171387
159745.32724761962891
159732.33088493347168
159739.74069023132324
159768.17609977722168
159819.82398414611816
159878.81511688232422
537491.81436538696289
535565.0212459564209
533646.7320384979248
531727.75785446166992
529817.04277801513672
527930.59758377075195
526076.33529853820801
524249.42882347106934
522438.54227256774902
520637.35639381408691
518852.24931907653809
517095.10764503479004
515365.87325668334961
513648.68708229064941
511925.6548023223877
510188.92190361022949
508440.0423698425293
506686.08867645263672
504939.13665199279785
503212.48837280273438
501511.14817047119141
499825.90592956542969
498138.91374969482422
496438.09305191040039
494725.04946136474609
493008.81670761108398
491293.69419860839844
489575.73297500610352
487849.68039131164551
486115.45620918273926
484376.95857810974121
482637.37341117858887
480897.020751953125
479153.60310363769531
162628.41567420959473
162296.82486915588379
161997.09588623046875
161729.53273010253906
161492.98780250549316
161283.99615478515625
161097.01327705383301
160925.916015625
160765.89019012451172
160615.15732765197754
160474.75922012329102
160348.17877769470215
160237.99062538146973
160147.66272735595703
160076.75130844116211
160028.86680793762207
160001.99417114257812
159997.61197090148926
160018.28752326965332
160047.65922737121582
535911.6079158782959
533957.85801887512207
532020.2878475189209
530108.9362735748291
528235.24468612670898
526400.38064193725586
524593.41992378234863
522800.20339965820312
521015.82682609558105
519250.86127853393555
517521.39497756958008
515829.63113021850586
514157.35393142700195
512480.45191764831543
510785.86179542541504
509074.77591514587402
507357.44844436645508
505649.61674880981445
503965.66485595703125
502306.91983604431152
500657.03720283508301
498993.47086524963379
497303.92002487182617
495592.2105541229248
493871.07938575744629
492149.73843765258789
490426.76141548156738
488693.79138946533203
486945.27080154418945
485183.41556930541992
483414.79645347595215
481644.03279113769531
163159.12934112548828
162836.62242126464844
162545.25463104248047
162284.81734466552734
162052.23468589782715
161842.05258941650391
161648.13529777526855
161465.66218948364258
161292.70109748840332
161129.99858093261719
160980.43637847900391
160845.97521591186523
160729.1363353729248
160629.15602111816406