/*--------------------------------*- C++ -*----------------------------------*\
  =========                 |
  \\      /  F ield         | OpenFOAM: The Open Source CFD Toolbox
   \\    /   O peration     | Website:  https://openfoam.org
    \\  /    A nd           | Version:  12
     \\/     M anipulation  |
\*---------------------------------------------------------------------------*/
FoamFile
{
    format      ascii;
    class       volScalarField;
    location    "0.0056";
    object      rho_0;
}
// * * * * * * * * * * * * * * * * * * * * * * * * * * * * * * * * * * * * * //

dimensions      [1 -3 0 0 0 0 0];

internalField   nonuniform List<scalar> 
106891
(
1.1491281549730631983
1.1491879117496144325
1.1492611492165718534
1.1493436338571991762
1.1494209658831424647
1.1494855876763425684
1.1495236589048185571
1.1495325380808858462
1.1495087996240067607
1.1494570489162476701
1.1493808154382014752
1.1498054731902116465
1.1500634690678641636
1.1503085737617819717
1.1504776263538949443
1.1505519019908672096
1.1505582304265851157
1.1505464894235999385
1.15055054415747815
1.1505668619259021845
1.1505585588664801744
1.1504855388857151421
1.1503398741522041782
1.1501616146207214175
1.1500217333303701661
1.149983973320263031
1.1500663957587926589
1.1502254672723504214
1.1503835282668408713
1.1504779673385894245
1.1504976150201922103
1.1504821001556999605
1.1504864473020675053
1.1505359191621631343
1.1506093384034301597
1.1506509123329038413
1.1506128169408436079
1.1504817180205146876
1.150279913647968888
1.1500506228662461528
1.1498302516066287726
1.1496366011230612081
1.1494799184022221894
1.1493678674232044035
1.1493049508713204521
1.1492882177607319782
1.1493055275543899718
1.1493377700550169163
1.1493734296895345981
1.1491060507017594183
1.1491551913989310751
1.1491918620160039843
1.149213554003300608
1.1492220713358272111
1.1492228302757436786
1.1492221587091924206
1.1492271135985259178
1.149245487470465843
1.1492828657030684791
1.1493418516842972554
1.1494148149088021515
1.1494953691885629876
1.1495690975063901362
1.1496299712891708822
1.1496653367039668669
1.149671707832166323
1.1496464343379133588
1.1495918136251717101
1.1495115037200380748
1.1504366651496498175
1.1506582785016243875
1.150811929066741568
1.1508847402473361132
1.1508985555987865101
1.1508900281732672433
1.1508835727915165403
1.1508756800336914505
1.150839071118941126
1.1507460663677731016
1.150592221630123646
1.1504112311184866435
1.1502639510186056793
1.1502040996074809343
1.1502457846838338718
1.1503522045682792463
1.1504574021476434709
1.1505143812058249431
1.1505264473615246512
1.150538691439919381
1.1505999520650473933
1.1507216790075862622
1.1508628277116326188
1.150951194412356049
1.1509270148088484031
1.1507745277870247147
1.1505245707846598613
1.1502282921800359716
1.1499357802123506556
1.1496813660390450273
1.149482617580003696
1.1493502609045607166
1.1492907788909703104
1.1492966429321964661
1.1493445676699132196
1.1494022965729167041
1.1492545572699863765
1.1493191045087183255
1.1493651916251055312
1.1493890569475075925
1.1493925286978652345
1.1493835989321801172
1.1493730707839651117
1.1493709958410005534
1.1493845808969613831
1.1494170087155690663
1.1494692372111519063
1.1495335255138838804
1.1496028891756271406
1.1496625308009147393
1.1497078276544991926
1.1497299985066122829
1.1497283879763819936
1.1497027660063918741
1.1496532568862944945
1.1495827378202585489
1.1507935117663536939
1.1509560983202049567
1.1510609522731878318
1.1511101212001626504
1.1511244101446265198
1.1511243184443087362
1.1511165702732577554
1.1510911181595206987
1.1510297671001170627
1.1509207326986063968
1.1507713947819222522
1.1506128803203865552
1.1504888206423791175
1.1504354794519517924
1.1504518839527966279
1.1505029666904464936
1.1505428756507389831
1.1505493251018688028
1.1505413664779309268
1.1505673082107157335
1.1506637488619373411
1.1508269163971025506
1.1510040037004207747
1.1511187520457117905
1.1511086657206992534
1.150955119231092727
1.1506859976911432142
1.1503572944389606203
1.1500249659758539078
1.1497308863523643119
1.1495001197539713722
1.1493491090396208421
1.1492844420398153904
1.1492973454210451134
1.1493600581396503646
1.1494304404826902744
1.149470864912746082
1.1495223395656537502
1.1495464599129801009
1.14954630336444108
1.1495303325250405546
1.149510691854514155
1.1494996514048878566
1.149505221320640036
1.149528464630576563
1.1495669482883599244
1.1496116990271916247
1.1496566582310248084
1.1496894519919724775
1.1497081088422427264
1.1497079328759853833
1.1496920560477967843
1.1496643901970593493
1.1496244833715547617
1.1495745716339167419
1.1512508165415982209
1.1512918994210898926
1.1513119401512752482
1.151328543228486545
1.1513449961461763582
1.1513470566089674119
1.1513124393816882574
1.1512261779741592704
1.1510927713120533422
1.1509384186242361814
1.1508023311640696029
1.1507125211772406548
1.150676230705941494
1.1506724522915297015
1.1506697778668646404
1.1506431349841863554
1.1505938482031663472
1.1505574219022471905
1.1505756437125946867
1.150671260089910275
1.1508297232695157142
1.1509990316111173847
1.1511111777182603255
1.1511109398723151642
1.1509771104941579623
1.1507277310970283057
1.1504091745073570241
1.1500747138163744943
1.1497690588200724093
1.1495229198154708339
1.1493551162236494978
1.1492738984606951647
1.1492730614203816586
1.1493257216625352157
1.1495364844838544816
1.1496160333826757061
1.1496688156060914654
1.1496915662249254098
1.1496878360512701178
1.1496664696618554835
1.1496395979369375961
1.1496190048917940274
1.1496120639479812109
1.1496183615962012325
1.1496331653119440386
1.149646702057517178
1.1496547060666042483
1.1496494180363672211
1.1496334142342994333
1.1496064853699050623
1.1495747634409754223
1.1495453763704754913
1.1495177155305020822
1.149493995431434934
1.1514417035702386727
1.1514049459685176124
1.151389254411445906
1.1514076745271233371
1.1514474761334143604
1.1514738692875763348
1.1514481224600983111
1.1513525386947522922
1.1512043621810288396
1.1510443613581047284
1.1509220040824024167
1.1508596989065684735
1.1508445495533143887
1.1508396318138631731
1.1508072131655400216
1.1507372758473797258
1.1506521980788706472
1.150588875773827402
1.1505793892015401259
1.150635861300341789
1.150742860403404233
1.1508618130490846365
1.150943626793819119
1.1509453362357366935
1.150843577924032024
1.1506423676103176845
1.1503705570103410771
1.1500707205013394052
1.149783656970639667
1.1495398778345979895
1.149358719162417497
1.1492499526028088219
1.1492114920751537177
1.1497571760201905633
1.1498101538686160694
1.1498346424707086566
1.1498326119843709225
1.1498117832941596728
1.1497824459893077886
1.1497531262927709328
1.1497284453912033353
1.1497073233693895222
1.1496859277777016217
1.1496567506160448868
1.1496185372228622246
1.1495688580339760154
1.1495154698765646106
1.1494626091802684353
1.1494181517405426263
1.1493908268390602423
1.1493792641446252123
1.1493849537783804582
1.1514666151249886017
1.151429698260580059
1.1514515059993970514
1.1515070494154844294
1.1515502285980372399
1.1515333704157098005
1.1514287828337375075
1.1512591077605307532
1.1510782707785309764
1.1509363948662714172
1.1508635198191912163
1.1508442536695373537
1.1508366642143350589
1.150801313641342194
1.1507315561627831091
1.1506487552701427646
1.1505797523480183475
1.1505457166770243216
1.1505507759086532893
1.1505829324884824238
1.1506237523023838953
1.1506517247394438819
1.150642200339514698
1.1505730167475278769
1.1504347799331458013
1.1502358844714746233
1.1499991806884910517
1.1497555157134855541
1.1495315884533459094
1.1493420319698319787
1.1491954422492702825
1.1490973178032994895
1.1498761914913295801
1.1499324876410259577
1.1499676813161523459
1.1499805175805133395
1.1499735399903703303
1.1499508567672112047
1.1499156198505917637
1.1498700741318488294
1.1498143070731838833
1.1497487728341349023
1.1496719973013271865
1.1495875603641767526
1.1494978207202546372
1.149414135649879265
1.149343771138381598
1.1492948964586870986
1.1492757937579687333
1.1492832084780875146
1.1493178169340958483
1.1514783855106176524
1.1515100114698493261
1.1515653102834575439
1.1516023224456926055
1.1515816704170800389
1.1514770674158236741
1.1512913888260858375
1.1510721734299960151
1.1508801835662985091
1.1507548500702620142
1.1506949153450700685
1.1506700443746349372
1.1506466602665417209
1.1506079528798012213
1.1505592976087124502
1.1505140325254503697
1.1504762812764657287
1.1504408046798217935
1.150402884930480818
1.1503636093334812518
1.1503261412796217389
1.1502865731928744175
1.1502313458158230919
1.150144690378715806
1.1500187062133575555
1.1498583960619268574
1.1496749054608068619
1.1494786233739771042
1.1492798322820028112
1.1490899498115514366
1.1499973898715982745
1.1500583014605691989
1.1501012016017782003
1.1501202721685783725
1.1501118640073824118
1.1500743632091170454
1.1500096377372377443
1.1499206850994636575
1.149813181831196518
1.149693599186668358
1.1495730529893710692
1.1494594022774571318
1.1493651135805855734
1.1492974430061897451
1.1492623812024780339
1.1492648957743529792
1.1492971448623552355
1.1493576981960524908
1.1516501492925683703
1.1516723410675464567
1.1516617263841604224
1.151598684715374743
1.1514703104417500779
1.1512724725015566207
1.1510261498915665968
1.1507783505129061119
1.1505782477626826932
1.1504507550582208086
1.1503886263786957667
1.1503674959058114435
1.1503640351286525956
1.1503632978374396245
1.1503565371477528778
1.1503344078215063107
1.1502873627312735216
1.1502129553617836955
1.15012057858591632
1.1500269149756474629
1.1499443563089133402
1.149874416081471562
1.1498100511228899201
1.149739715373486959
1.1496489030059970915
1.1495243978639999582
1.1493587319296600935
1.1491530855044536086
1.1499663456526487693
1.1500600580068149892
1.1501386052576278995
1.1501873283959984651
1.1501963783762263471
1.1501609731824493643
1.150082987441620519
1.1499693369825274569
1.1498324355825455534
1.1496867501150087598
1.1495502964253421219
1.1494367294389424838
1.1493591858543055206
1.1493220259498002633
1.1493249022974652007
1.149366055887121929
1.1494311238620265048
1.1495148584595347163
1.1517134043538330701
1.1516550990100686835
1.151561424318326976
1.1514189533320207115
1.1512149104098392538
1.1509568321667331681
1.1506793573960523158
1.15043078556305578
1.1502487160242553799
1.1501421513391905105
1.1500961921368806351
1.1500894017136775727
1.1501041075761468946
1.1501214511566391074
1.1501213926091746753
1.150089008309007399
1.1500172940519604037
1.1499106687410816097
1.1497836113957473625
1.1496575025414064175
1.1495528225401778766
1.1494786251205553196
1.1494280967222407774
1.1493796872208827953
1.1493022234559551187
1.1491674169722214671
1.1489625205771940575
1.1499510318866426051
1.1500527208954343106
1.1501223982811996649
1.1501454594167543899
1.1501148415051851703
1.150033608324871226
1.149912751225212304
1.1497710289674283324
1.1496296406072605834
1.1495100537760776227
1.1494267675704694653
1.1493898980261716414
1.1494002430754330923
1.1494511409280767644
1.1495337550607171995
1.1496278928408940612
1.14972488522918459
1.1516109277414683376
1.1515694893654226938
1.1515179171948259906
1.151434678455637961
1.1512941888756091924
1.1510865578612228255
1.1508305910851752696
1.1505663197859357094
1.1503331066890170042
1.1501511860317172875
1.1500209735642628051
1.1499336284673880026
1.1498806090800153257
1.1498548120709082276
1.1498490285953577583
1.1498479529718714787
1.149829874534906482
1.149776254718448909
1.149679111588045588
1.1495469493435133135
1.1494009708173966722
1.1492696337246763871
1.14917595117370408
1.1491222600653363539
1.1490876497599569195
1.1490330226500244937
1.1489167428420203887
1.1498364795811115702
1.149904721694081644
1.1499310731371223948
1.1499109034069590063
1.149849286840465501
1.149758237403955663
1.1496558843747852752
1.149561533444947159
1.1494932249409530733
1.1494629830744784726
1.1494765301842346794
1.1495309474448871523
1.1496155310235529612
1.1497177353405176881
1.1498149588301924684
1.1498985975465849663
1.1512892430604690919
1.1512819530025732995
1.1512952105483529319
1.1512704705270522254
1.1511591309311401954
1.1509586980709964887
1.1507159985539554548
1.150493494839786246
1.1503274420814797452
1.1502085765708729426
1.1501033326073450969
1.1499891548034941735
1.1498716838849065702
1.1497710277596497885
1.1496982245721927285
1.1496469618896054676
1.1495958545692024355
1.1495245684648573992
1.1494243337745377875
1.1492995642641727905
1.1491672482579975423
1.1490480131460043545
1.1489593534015789533
1.1489046248740220069
1.148863871455285679
1.148801798747402847
1.1486864077820695407
1.1485055351303117277
1.1496031530641923624
1.1496318458001715257
1.1496326046801017551
1.1496106015569200753
1.1495748250162716175
1.1495378527631159304
1.1495120745229734371
1.1495077788839431765
1.1495306673089979999
1.1495811261830557459
1.1496542328496541785
1.1497385835436984003
1.1498235226303881173
1.1498916245071026943
1.1499403928693463506
1.1508944322604337529
1.1509638478534445216
1.1509960987950069722
1.150922815159214796
1.1507455159820245694
1.1505310242408228749
1.1503579846990221736
1.1502611314149515653
1.1502137943376522511
1.1501597406478907271
1.1500607021605564473
1.1499197226081305789
1.1497664795561122197
1.1496278259629166829
1.1495097831301559488
1.1494022576215918718
1.1492938238218928237
1.1491809261721137592
1.1490674251230197367
1.1489614333704232241
1.1488718408687870198
1.1488052348705988237
1.148759354647209685
1.1487170409067466448
1.1486510854306746232
1.1485387082732385622
1.1483772063308692601
1.1493576774614073788
1.1493793862316825649
1.1493965400277754707
1.1494149366308414884
1.1494409765409316915
1.1494790469227720298
1.1495304005837456707
1.1495937688964865675
1.1496643598453730739
1.1497362051273074535
1.1497998549126471346
1.1498503766135867998
1.1498786002838201625
1.1498894412233513496
1.1505640223798672128
1.1506509072385584513
1.1506305730516819263
1.1505014821351950971
1.1503345979333112759
1.1502140718701130417
1.1501755092924135226
1.1501882943146470861
1.1501868360906957189
1.1501219034025405019
1.1499859829316882998
1.1498050796845291632
1.1496102371960319477
1.1494202283600902792
1.1492422875734302767
1.1490814450354325249
1.1489450641334895131
1.148838552905780519
1.1487621039043232063
1.1487111744093922994
1.1486788034247632506
1.1486554038144445311
1.1486235904941644037
1.1485615889536751055
1.1484568212999959336
1.1483184735879694571
1.1491570170976161958
1.1492123877807152166
1.149282089429518372
1.1493658473252861274
1.1494593502127505857
1.1495547494608853167
1.1496442814568235136
1.1497189635209350556
1.1497735047082515702
1.1498028203819485871
1.149809429558318552
1.1497933368376331842
1.149766582121085623
1.1502449914115469021
1.1502754638777923368
1.1502142422998693494
1.1501152141518165006
1.1500498316893921213
1.1500517715015614595
1.1500981226615945019
1.150132837657727336
1.1501061081337948799
1.1499994471954908537
1.1498239215996344242
1.1496041404230661342
1.1493654515629425639
1.1491306145044131171
1.1489226012883246852
1.1487609559464662112
1.1486546244067856737
1.148599126074332677
1.1485816382272067138
1.1485853850930114461
1.1485911673523492293
1.1485776936197151787
1.1485275120600777488
1.1484385482362804431
1.1483296859423335334
1.1490739299547036989
1.1491845547503773961
1.1493111875976345093
1.149442236210134638
1.1495630281294766384
1.1496611038885051759
1.1497251416564098214
1.1497522684035372809
1.1497428031811078863
1.1497065466641778197
1.1496511476653596961
1.1495936694160202585
1.1499261363862900431
1.1499345338541497874
1.1499066823489461076
1.1498906025601591807
1.1499136721853264742
1.1499646436756509882
1.1500059965109561411
1.1499988783430421524
1.1499221465712148316
1.1497749048757333057
1.1495691854673930621
1.1493256503040933936
1.1490728006239754322
1.1488427504825018399
1.1486628750645528907
1.1485469709646847214
1.148494181617445431
1.1484922622263655789
1.1485196449836458932
1.1485495436592181306
1.1485570039466865833
1.148527002026014765
1.148463109650033287
1.1483881214063942355
1.1496254768158680193
1.1496609255969836294
1.1496867485889497029
1.1497219247289367505
1.1497642912378938096
1.1497944882802206834
1.1497902589476256541
1.1497383511949677004
1.1496348161782441455
1.149481831563889056
1.1492875067469656702
1.1490693279586459141
1.1488535887186686058
1.1486685634943059053
1.1485361627611758717
1.1484667461754578532
1.1484562741673838282
1.1484861825388714696
1.1485279060447846078
1.1485528800464115395
1.1485450303539577188
1.1485084952916619905
1.148466266896545962
1.1495020334765637671
1.1495347893650227356
1.1495561925306840845
1.1495579778359377165
1.1495354129612254113
1.1494934999613068971
1.1494365889573414652
1.1493603803853014167
1.1492538623865391489
1.1491109841476205844
1.1489400008551879928
1.1487643423903846074
1.1486145902196691626
1.1485156818110859867
1.1484770588068959896
1.1484891157341805545
1.1485254621136740116
1.1485555772540059216
1.148561324926288929
1.1485462997488009584
1.148531912238389463
1.149246484965313897
1.1492102054749651074
1.1492000180642558682
1.1492104726719887253
1.1492117489142044118
1.1491698867971962272
1.1490687393576697328
1.1489210135804897028
1.1487620950604429115
1.1486318679427600653
1.1485565016049545939
1.1485369489282744038
1.1485507204831864048
1.1485683338209502491
1.148572947438007974
1.1485688265478919412
1.1485740737685616875
1.1491564982520763305
1.1492210112490848228
1.1492014236670808902
1.1490958497484045076
1.1489403283739674233
1.148786791319990952
1.1486756035009677568
1.1486180113655601875
1.1485972443200005433
1.1485883637957676751
1.1485783984422677229
1.1485726784306484749
1.1485857890785307056
1.149254921093570081
1.1493130247644971487
1.1492556981739427968
1.1491164835208096395
1.1489538305334672241
1.1488172603268691496
1.1487252158000822444
1.1486675430701398515
1.1486254226169287929
1.1485905067759341058
1.1485704542165144915
1.1485780481767478012
1.139271184406028814
1.1394407840528346654
1.1395084451498929123
1.1394365941076105564
1.1392577502369003462
1.1390602142969474819
1.138942903449662758
1.1389976821644729466
1.1392712836796943243
1.1397633390386390229
1.1404365724980294328
1.1412342834699076288
1.1420997285280201083
1.1429806629183332234
1.1438164973819153758
1.144553305540074728
1.1451763707347262233
1.1457015957704628217
1.1461691267664122496
1.146608767176243493
1.1389160003609215543
1.1391361149896004346
1.1393776079036921356
1.1395468853082579841
1.1395853793814147981
1.1394989771179857563
1.1393465464541732146
1.1392058161234079883
1.1391564489138716887
1.1392677202808028092
1.1395777545253191754
1.1400909651271637912
1.1407793782502828606
1.1415826571977989445
1.1424312236952256505
1.1432526582025370754
1.1439914913546056496
1.1446365929423873986
1.1452176149220767432
1.1457584217832408324
1.1462672414156245271
1.1467306814489701683
1.138954019575795229
1.1388016532526352709
1.1388507275344375014
1.1390508240445795796
1.1393025279299129338
1.1395145472924173013
1.1396237648741429638
1.1396238316860660689
1.1395454418102215488
1.1394423147082750614
1.1393792989178754826
1.1394246842685358256
1.1396397239365698706
1.1400555279006070464
1.1406591467064544076
1.1413927654305469073
1.1421664618809612701
1.1429059444548368418
1.1435715850296601648
1.144169197483375866
1.1447390440193565553
1.1453050214340037005
1.1458526350893463164
1.1463555750321920979
1.1468039929253239784
1.1472086632887552593
1.1389000536264415331
1.1386116786160611625
1.1384988801272373227
1.1385701157402337014
1.1387787554816499735
1.1390411342959969598
1.1392790405953714394
1.1394479004985549331
1.1395404562119486602
1.1395692007740150231
1.1395610771593696064
1.1395593581145928574
1.1396233213240605231
1.1398295299630774036
1.1402335101818210639
1.1408318579993195208
1.1415598196706486789
1.1423119335954374787
1.142997007557510436
1.1435886633151273184
1.1441165673681332748
1.1446300719861255413
1.145153574408985131
1.1456620169545421728
1.1461225514380286583
1.146535029515176829
1.1469300973711074043
1.1473286143640764045
1.1381540487007408835
1.138030386437845376
1.138044625453051184
1.1381761326398700529
1.1383905214081129209
1.1386475906940487501
1.1389190754253166737
1.1391956022912868018
1.1394988136581456484
1.1398543145260953136
1.1402613691624885472
1.1406989675902448056
1.1411397711746562589
1.1415882360628948344
1.1420833600112343387
1.1426660928555962826
1.1433270287544452515
1.1439940908130696862
1.1445592038482936825
1.144946452591159014
1.1451639990869653118
1.1452958176183212213
1.1454324488394580506
1.1456100562138618049
1.1458123201024603688
1.146007335674182448
1.1462046884552452575
1.1464489199305998302
1.1467610581663589819
1.1471027407609750703
1.1393511921757200067
1.1394246562126972844
1.1396195907279111914
1.1399232097080937987
1.1403177532237285252
1.1407842878474148129
1.1412994274610035461
1.1418411619828952031
1.1423955722179737204
1.1429628192519125651
1.1435355122285557616
1.1440743809147890797
1.1445148870511006045
1.1448078688119378565
1.1449654233363704137
1.1450595690966172135
1.1451780644900373396
1.1453538606409450207
1.1455362968404818602
1.1456292322263015304
1.1455633115331551597
1.1453666157866337905
1.1451466139757173757
1.1450045856695014734
1.1449720115813821764
1.1450095049217199339
1.1450714593470825431
1.1451662305077434656
1.1453462430825069873
1.1456350287447429892
1.1459783068384543636
1.1462770480545103613
1.1417318860804592795
1.1416640152803507746
1.1416861394780666306
1.1417938048253664096
1.1419772255585451948
1.1422225496512137255
1.142509898492229059
1.1428225364344024584
1.143156714081775327
1.1435221286213297365
1.1439143449110329431
1.1442884239001409608
1.144563183199680978
1.1446776807907508289
1.1446448975997369768
1.14455457587121745
1.1445144987349864518
1.1445706637878656498
1.1446656592711415001
1.1446842449732541613
1.1445436098521428736
1.1442710809972616026
1.1439846111210545399
1.1437967037589624741
1.1437376119942668229
1.1437551498429514574
1.1437968989378686224
1.1438766134998401558
1.1440571977753746236
1.1443676484408684679
1.144743946963872272
1.1450687495876559208
1.145257953342322832
1.144742653509805308
1.1443116090877647473
1.143906930757071283
1.1437482594121701762
1.1439490937056777664
1.1443489102867501206
1.141152994472566462
1.1409900405959723102
1.1409280703758484243
1.1409597257061092623
1.1410755884626537782
1.1412590100206314592
1.141488898022420706
1.1417515752992684064
1.1420472600941846686
1.1423873606809675785
1.1427645233193359786
1.1431277242305957209
1.1433866856920218424
1.1434745515637811941
1.1434063527498581347
1.1432848475741241856
1.1432268323092871221
1.1432820775052139339
1.1433845686495804905
1.1434049445916585341
1.1432560184694386951
1.1429686063572717103
1.142669276880864393
1.1424798700296960874
1.1424269491697025547
1.1424485949840128551
1.142488422091887168
1.1425678693892147297
1.1427591571214759103
1.1430945308800957161
1.1435035354020821607
1.1438543288226472594
1.1440555092158952721
1.1441114224224555596
1.1466847834387963179
1.1463025339444938844
1.1458311694694351957
1.1453691889798915948
1.1451568377695093837
1.1453028366111042136
1.1456468688518952614
1.1401922345835928674
1.1400175366245972608
1.1399471945456458588
1.1399749769578972902
1.1400925378595521131
1.1402776610355918052
1.1405066479834220505
1.1407659740140838611
1.1410593212755621995
1.141402507301680691
1.1417904508096774485
1.1421677841660149433
1.1424391823022763681
1.1425289420520279293
1.1424537664246854352
1.1423221451803460269
1.1422596520393948349
1.1423192619241406831
1.1424326209142525723
1.1424601675215078078
1.1423147655301928438
1.1420247664727953829
1.1417235494768736004
1.1415370007045144707
1.141490751688305938
1.1415185565416356983
1.1415604239301324618
1.141642495544348046
1.1418408439129639209
1.1421889168945336124
1.1426149727556063063
1.1429791404101614649
1.1431863818094987195
1.1432427906517159677
1.1432204969565695762
1.1489756282996717029
1.1490460483467657138
1.1490811636740481116
1.1490833528007202702
1.1490537441314983003
1.1490074486764643158
1.1489538433765802417
1.1489115840671570989
1.1488886658989589939
1.1488960401557732904
1.1489283259862397291
1.1503697909292514012
1.1502707174722681671
1.1501122290286718286
1.1499795678409676647
1.1499493873995707549
1.1500408095362852912
1.1502066752495043733
1.1503649357055223401
1.1504472936641034764
1.1504322522751719848
1.1503500575734753042
1.1502600551839678999
1.15021892245118873
1.1502539473222617161
1.1503553234224188628
1.1504794269212039737
1.1505698074470944725
1.150583204663655712
1.1505095928089614787
1.1503805450828281653
1.1502524211239799623
1.1501766359546223839
1.1501671726234230508
1.1502086038445780147
1.1502505443915129746
1.1502588813889749186
1.1502293080346968068
1.1501769341601300045
1.1501235175852573267
1.1500830872747547229
1.1500556576709415335
1.1500292474856113056
1.1499886532988810028
1.1499205776951604285
1.1498194554957092972
1.1496920506217955804
1.148456238381990735
1.1484871564308998249
1.1485483982862623176
1.148635591510012377
1.1487413516445388328
1.1488568755255614828
1.1489739587865439585
1.1490842520581066033
1.1491804754477472628
1.1492564127408539942
1.1493056443009648238
1.1493245642177796206
1.1493090780976307208
1.149265020531083703
1.1491960401960490401
1.1491180638952953608
1.1490402646340716064
1.1489803142146273185
1.1489462838741049122
1.1489459769045178295
1.1489754585077032178
1.1507483846125521332
1.1506288200688912227
1.150468864281340764
1.1503445576603499312
1.1503155741544732749
1.1503845060253818922
1.1504985005377958984
1.1505824205395018822
1.15058450509882082
1.1505030703259069291
1.1503850597731357652
1.1502940663531608934
1.150281376283866841
1.1503650980584703145
1.1505204152613222046
1.1506886908053708396
1.1508052048349881602
1.1508250885142499165
1.150738771912046543
1.1505796409737996111
1.1504051827458430246
1.150266792578412689
1.1501975424498227518
1.1501784386576572317
1.1501804693465398355
1.1501843954512303014
1.1501781818162644111
1.1501598534406485275
1.1501332158722044063
1.1500999202813226852
1.1500576823046952946
1.1500042225541839969
1.1499372239836638254
1.1498512980565118724
1.149739750388493631
1.1496021379081662328
1.1486316585083180541
1.1487182465405676446
1.1488393072108025184
1.1489849035368322472
1.1491406608892607011
1.1492906912114988494
1.1494219169460964114
1.1495245322378049302
1.1495923927755944405
1.1496235368894933693
1.1496185035449859591
1.149581525952660721
1.1495147052042504754
1.1494271259469728275
1.149323777297836191
1.1492200909574057377
1.1491237569306991251
1.1490501418077689877
1.1490065153797279773
1.148997443039178723
1.1490205890160245517
1.1509814321669322723
1.1508304066717647274
1.1507144251452212647
1.1506702690099572806
1.1506911855169699166
1.1507289962528746141
1.1507259164649277228
1.1506535768673344933
1.1505293943867695994
1.1504061574911050858
1.1503435084610558192
1.1503814175123767694
1.1505200309605008169
1.1507177127595091815
1.1509082340309773063
1.151027175327758556
1.1510373460924614442
1.1509369657925854202
1.1507513397308541947
1.1505323818607426922
1.1503340177944052503
1.1501782895306966736
1.1500743261305583776
1.1500319780547860748
1.1500343740233986978
1.1500607923082861728
1.1500902661747782751
1.1501020789531966049
1.1500801493613994619
1.1500205876246072378
1.1499325941182196864
1.149828197635934357
1.1497127838341263395
1.1495836623476056726
1.1489627476012034268
1.1491343436446681547
1.1493283588283307317
1.1495227670743841664
1.1496965068132518617
1.1498335559300605357
1.1499241601363019427
1.1499647106472772329
1.1499572412357406126
1.1499071118571420058
1.1498236306911340243
1.1497139863364480572
1.1495905532332011401
1.1494598362799470781
1.1493362946321201701
1.1492254928360339239
1.1491396027573352878
1.1490841426254991831
1.1490605045215958047
1.1490689121611474821
1.1513309477038951023
1.1511862846901110835
1.1510566608394356969
1.1509577981273717562
1.1508859968119145023
1.1508165559534160316
1.1507238005334032849
1.1506026184670175017
1.1504791483901366522
1.1504016007451323134
1.1504129923241603883
1.1505246005164708745
1.1507128998289968269
1.150924971187836654
1.1511001232639435088
1.1511851735939557795
1.1511588306790403458
1.1510300525536971694
1.1508208705434948005
1.1505659247931301348
1.1503053634779230041
1.1500796846923133643
1.1499238397482265395
1.1498505393099063276
1.1498552468129945581
1.149915091877007578
1.1499907056122558036
1.1500369607368325919
1.1500220509241034783
1.1499403241031120881
1.1498099602505995609
1.1496578255557032833
1.149503366575284069
1.1493517166164795018
1.1492041665743419898
1.149395621954557134
1.1496090783836123705
1.1498203107130953171
1.150005948392556876
1.1501473438541847116
1.150233682771522048
1.1502620948934902945
1.1502363772804689024
1.1501640535390844633
1.1500568453077109066
1.1499248444824068383
1.1497822300443518717
1.1496366634738004464
1.1495015701952724374
1.1493803659345276369
1.1492818820313179806
1.1492098872855669445
1.1491633004292656217
1.1491457786575196565
1.1514773010420273902
1.1513034380558297975
1.1511151599177180671
1.1509250065990437317
1.1507437538390725695
1.150584826889504475
1.1504653429287481359
1.1504130660791282992
1.1504470918151050718
1.1505697311039226882
1.1507590135253584762
1.1509653221212066132
1.1511387367525249825
1.1512426961922213042
1.1512508005857793325
1.1511508378349368797
1.1509635073122672644
1.1507234186792434372
1.1504564445239904291
1.1501860616760677392
1.1499453702643613884
1.1497686770040826953
1.1496808528486968104
1.1496887703842011419
1.1497701532099813271
1.1498729237155251859
1.1499353073517775137
1.1499140437245345403
1.1498014204686981543
1.1496225996517790424
1.1494171652401674599
1.1492177164105761289
1.1495828873277740279
1.1497807516685241147
1.1499830268848514336
1.1501662330753499308
1.150310757638489223
1.1504043971347808206
1.1504423856464820464
1.150426540280783172
1.1503628122839044678
1.1502623210842621848
1.1501354137290125124
1.1499955374610955072
1.1498499906459758169