/*--------------------------------*- C++ -*----------------------------------*\
  =========                 |
  \\      /  F ield         | OpenFOAM: The Open Source CFD Toolbox
   \\    /   O peration     | Website:  https://openfoam.org
    \\  /    A nd           | Version:  12
     \\/     M anipulation  |
\*---------------------------------------------------------------------------*/
FoamFile
{
    format      ascii;
    class       volScalarField;
    location    "0.0059";
    object      alphat;
}
// * * * * * * * * * * * * * * * * * * * * * * * * * * * * * * * * * * * * * //

dimensions      [1 -1 -1 0 0 0 0];

internalField   nonuniform List<scalar> 
106891
(
8.0316712583384424276e-06
8.0258775562045465995e-06
8.0185174453749595038e-06
8.0122428564588950826e-06
8.0044109931943012405e-06
7.9977213171496205652e-06
7.9895498067368584739e-06
7.9826021684870344697e-06
7.9742525546153115003e-06
7.9672920751496801304e-06
7.9583877147762633589e-06
1.1392860418063757862e-05
1.1420094114705551947e-05
1.1441164784498493272e-05
1.1455836157244205791e-05
1.1465297593612394021e-05
1.1472137457667936787e-05
1.1479733360764579649e-05
1.1490989970316075857e-05
1.1507468807503261631e-05
1.1529751512338356204e-05
1.1556926765812296809e-05
1.1587824441292019135e-05
1.1621096421394617445e-05
1.1655441832847136661e-05
1.1689756711288870915e-05
1.1722944543883844504e-05
1.1753940738635014243e-05
1.1782021095301968084e-05
1.1806324641374285928e-05
1.1826217226835752133e-05
1.1841179945257683314e-05
1.1850718501624108253e-05
1.1855263651064732995e-05
1.1855011027571970303e-05
1.1850575555824971165e-05
1.1843253016271831928e-05
1.1834198005168875063e-05
1.1824465197617686809e-05
1.1814998026225928036e-05
1.180685333468077129e-05
1.1800010836622706881e-05
1.1793618776577237251e-05
1.178454481997826339e-05
1.1769541457659355504e-05
1.1752086367942310484e-05
1.1734166331332794347e-05
1.1715295521491338868e-05
1.1697091627360943193e-05
8.5186496494281540399e-06
8.5085896588077980789e-06
8.5005130559095598602e-06
8.4912727976202278266e-06
8.4840467904674767501e-06
8.4755867379983251711e-06
8.4690759639230178289e-06
8.461194764376819171e-06
8.4550140797707418324e-06
8.447235136276008829e-06
8.4408584992489720552e-06
8.4326493227696365133e-06
8.425777041226150928e-06
8.4170856764987232366e-06
8.4097787931925957889e-06
8.4007827168715592961e-06
8.3933145668659220676e-06
8.3841873420793578314e-06
8.3767698060104921421e-06
8.366990844804472009e-06
1.2005197301163316538e-05
1.2029840797656514141e-05
1.2047391308106174173e-05
1.2059193871686168674e-05
1.2068118432596215976e-05
1.2077890018495122962e-05
1.2091695996502714982e-05
1.2111087255387937707e-05
1.2136660664655300919e-05
1.2167292743181967236e-05
1.2201653952604384515e-05
1.2238404935788092383e-05
1.2276148135650560153e-05
1.2313597765287705309e-05
1.2349634252198490782e-05
1.2383154100978466437e-05
1.2413287166742966949e-05
1.2439246866342130814e-05
1.2460343084630073036e-05
1.2476186649764538117e-05
1.2486198167801143885e-05
1.2491067191014626383e-05
1.2490948436593629558e-05
1.2486491494635560654e-05
1.2478971202259429052e-05
1.2469453084078168715e-05
1.2458977018183362218e-05
1.2448550549532188891e-05
1.243917316688752421e-05
1.2431032126396693413e-05
1.242293677604889211e-05
1.2410940491590806824e-05
1.2393294311902253358e-05
1.2375311225400898444e-05
1.2356226809816645335e-05
1.233743929381335571e-05
8.9620854731714820907e-06
8.9514058966009077959e-06
8.9428572521256682496e-06
8.9328160051746977727e-06
8.9249670744821344218e-06
8.9156351805883126159e-06
8.9085028267028791679e-06
8.8997721855000299225e-06
8.8929885681302493745e-06
8.8843279574704712032e-06
8.8773204902042621107e-06
8.8681935432087868887e-06
8.8606601875183869471e-06
8.8510786178508501967e-06
8.8431889328954616002e-06
8.8333708572225084062e-06
8.82541146020578569e-06
8.8155184650803750476e-06
8.8076699238264168264e-06
8.7970318061306109777e-06
1.2694394631007524686e-05
1.2712078461740612068e-05
1.2722570830540148911e-05
1.2728017129965376716e-05
1.2732153496056237605e-05
1.2738536706634165146e-05
1.2749607318800673509e-05
1.2766918181554326624e-05
1.2790493212995328217e-05
1.2819202376959673247e-05
1.2851395736253463695e-05
1.2885960390848176917e-05
1.2921488045079393685e-05
1.2956978114897477794e-05
1.2991492458511750627e-05
1.3023884956037919122e-05
1.3053157789939182404e-05
1.3079047095790490005e-05
1.3101157682107412715e-05
1.311936198208047201e-05
1.313333054048555098e-05
1.3142961660847738987e-05
1.3147999288207614665e-05
1.314862409827657971e-05
1.3145513697203195364e-05
1.3138713400205128082e-05
1.3129489674763129099e-05
1.3119344460324366855e-05
1.3109631131472885131e-05
1.3101216631137957002e-05
1.3093859128431839501e-05
1.3086779087089095853e-05
1.3075808376862233927e-05
1.3055972179004094559e-05
1.3033688562618019006e-05
1.3012191102903407887e-05
9.4183383308570677657e-06
9.4091314920293799072e-06
9.3980575629422909796e-06
9.3893806608940254732e-06
9.3789729151160659739e-06
9.3710420827225476029e-06
9.3612783811682934653e-06
9.3537453369434770051e-06
9.3441024430521210095e-06
9.3364355529211071316e-06
9.3263562577759772688e-06
9.3181580749214178481e-06
9.3076467790116560309e-06
9.2991722328987094857e-06
9.2885137801788405224e-06
9.2800852137227604334e-06
9.2694402723234142321e-06
9.2611789470899340623e-06
9.2496696896461084585e-06
1.3392750221124696453e-05
1.3398503357188681589e-05
1.3399010789758138555e-05
1.3397961680639339832e-05
1.3399596961893166477e-05
1.3406846335009434419e-05
1.3421427708784599076e-05
1.3443735683562343141e-05
1.3473516858010976488e-05
1.3509589687634370684e-05
1.3551051536191043313e-05
1.3596933548117842968e-05
1.3645397736285825427e-05
1.3694176241145275259e-05
1.3741024125431413762e-05
1.3784003018746464106e-05
1.3821619201622027567e-05
1.3852598711896907334e-05
1.3876524783838664099e-05
1.3892873978049775731e-05
1.3901965000564590801e-05
1.3904687283323488415e-05
1.3901529785920489082e-05
1.3894125012834104027e-05
1.388393454409760288e-05
1.3872148563029562939e-05
1.385963671306485977e-05
1.3847032838621849715e-05
1.3834838448429488697e-05
1.3821338362939487602e-05
1.3800508673254439232e-05
1.3775926650301490795e-05
1.3751456518535889366e-05
1.3728335004009455269e-05
9.9228931158641311684e-06
9.9104325460520630069e-06
9.9003632909184443195e-06
9.8880670216457160264e-06
9.878400220876277287e-06
9.8667353285557732041e-06
9.857879765870177554e-06
9.8469697602148358376e-06
9.8386374238096441019e-06
9.8279271864274133567e-06
9.8195263974030738658e-06
9.8084401963835827787e-06
9.7995956033845008532e-06
9.7881281315492009329e-06
9.7790689826663663553e-06
9.7675222901036338905e-06
9.7585882272304884735e-06
9.7471741435255445003e-06
9.7384804921510606833e-06
9.7261063323362987947e-06
1.4069521846724531209e-05
1.4085887696520591047e-05
1.4095291010219072116e-05
1.4101290423092453305e-05
1.4107446176922772542e-05
1.4117085388677528789e-05
1.4132362270323883515e-05
1.4153677506575760526e-05
1.4181447968284075173e-05
1.421535521446302108e-05
1.4254873495410311845e-05
1.429863735959041784e-05
1.4345076389666389509e-05
1.4392051604177010421e-05
1.4437223184180698231e-05
1.4478841448797870922e-05
1.4515875629989322425e-05
1.4547987747159876629e-05
1.4574283751733921419e-05
1.4594368778849355946e-05
1.4607834005817981976e-05
1.4614398873300312817e-05
1.4615342142408957929e-05
1.461095036726639399e-05
1.4602714041330067959e-05
1.4591989347418259586e-05
1.4579688678583509293e-05
1.4566805530285401363e-05
1.4553806604567732434e-05
1.454134407046451456e-05
1.4527746430314637078e-05
1.4506626583960360581e-05
1.448212869978828172e-05
1.0428516469862524017e-05
1.0417459369237319248e-05
1.0403876625925885624e-05
1.0393235368416917501e-05
1.0380320641482785248e-05
1.0370502727172191957e-05
1.0358347083181438064e-05
1.0349172060034301262e-05
1.0337377729719235487e-05
1.0328229036857271395e-05
1.031612482035369474e-05
1.0306572874361059856e-05
1.0294115880504083968e-05
1.0284424631163752899e-05
1.0271973864048175983e-05
1.0262478672065490182e-05
1.0250263108969534599e-05
1.0241066858343337112e-05
1.0227764371495843949e-05
1.4813622302616840458e-05
1.4826615500583699254e-05
1.483672672861261419e-05
1.4846715370482723378e-05
1.4858791606255887998e-05
1.4874996830993973289e-05
1.489632033511726215e-05
1.4923606365075120647e-05
1.4956812193748202167e-05
1.4995653016169109369e-05
1.5038987565581309419e-05
1.5084802194828213668e-05
1.5131043359750621016e-05
1.5175610511417580181e-05
1.5217188150678426139e-05
1.5255142742455864765e-05
1.5288770723664919007e-05
1.5317473705969472512e-05
1.534007150552584077e-05
1.5355879644446419473e-05
1.5364316504993235231e-05
1.5366504331771790908e-05
1.5363831249364997015e-05
1.5357174555349377616e-05
1.5347670769635199942e-05
1.5335882830635118611e-05
1.5322467541036004126e-05
1.530799663383403838e-05
1.5293585001273203388e-05
1.5279469337515551726e-05
1.5261827520186060973e-05
1.5237674313081861626e-05
1.0973635535683795407e-05
1.0961587953930581769e-05
1.0946803777286068856e-05
1.0935283820505640876e-05
1.0921242590041595517e-05
1.0910595891479569523e-05
1.0897324058300592159e-05
1.0887316296788845769e-05
1.0874386884548628196e-05
1.0864414323578861553e-05
1.0851235258373193577e-05
1.0840956408432310686e-05
1.0827450162683965914e-05
1.0817043754948288165e-05
1.080358376380274738e-05
1.0793410297479783441e-05
1.0780260525720419094e-05
1.0770453322010484069e-05
1.0756153235315016117e-05
1.5610524251510768346e-05
1.5623395727141050948e-05
1.563595634432810575e-05
1.5650099490661217573e-05
1.5667019968989550157e-05
1.5688429763324905825e-05
1.5715232699270244207e-05
1.5748038294342685001e-05
1.5786166056489472654e-05
1.5828191362739183769e-05
1.5872369493836301085e-05
1.5916415280658092226e-05
1.5959393513465656056e-05
1.6000377198783732294e-05
1.6039404451040055618e-05
1.6075896148287871458e-05
1.6108819621043509287e-05
1.6136672546075775733e-05
1.6158040594787985227e-05
1.6172511311358267629e-05
1.6180177497406110482e-05
1.6182813170445288194e-05
1.6181503373323150111e-05
1.617605475186865673e-05
1.6166386682168324605e-05
1.6153230887558359574e-05
1.6138105991673927302e-05
1.6122160913281776069e-05
1.6107045914410386206e-05
1.6091749177132869407e-05
1.1535407329069080121e-05
1.1519646109361048717e-05
1.1507423556877058188e-05
1.1492515334633967327e-05
1.14812475742010156e-05
1.1466992637367461465e-05
1.1456183396345746158e-05
1.1442099483202198653e-05
1.1431258788539086643e-05
1.1416925314153826307e-05
1.1405841913942070913e-05
1.1391225108953931375e-05
1.1380060718178555094e-05
1.1365554131996267258e-05
1.1354638067136736329e-05
1.134047634597460897e-05
1.1329952065231198508e-05
1.1314634227831879334e-05
1.6434011767837249427e-05
1.6446468171524288672e-05
1.6458973842603119716e-05
1.6473048555251646428e-05
1.6490914943409165665e-05
1.6514525196718578227e-05
1.6544809500569348994e-05
1.6581411786561483265e-05
1.6622472249980993866e-05
1.666673419892284556e-05
1.6712097984758218089e-05
1.6757737743951421172e-05
1.6803515236797018966e-05
1.6848769980764269669e-05
1.6892545542556980782e-05
1.693314050962886692e-05
1.6967913025784722578e-05
1.6995444273607813828e-05
1.7015050036678128187e-05
1.7026690370187757108e-05
1.7032072724843192184e-05
1.7032821146414101754e-05
1.7028639764164483356e-05
1.7019709983347108357e-05
1.7006501271613437131e-05
1.6990789996175936945e-05
1.697394900026592864e-05
1.6957682207889579213e-05
1.2155695894807141155e-05
1.2139812262735220382e-05
1.2127224695594659501e-05
1.2112160145136482845e-05
1.2100337866669813258e-05
1.2085620924844801913e-05
1.2074136602014032526e-05
1.2059344405576175453e-05
1.2047763070316884506e-05
1.2032650999765395728e-05
1.2020849658663930359e-05
1.2005558911568422223e-05
1.1993760005392607311e-05
1.1978522611553336691e-05
1.1966971098298300361e-05
1.1952068607150737595e-05
1.1940866081274721991e-05
1.192542299892639145e-05
1.7291333822522394039e-05
1.7311437258544416258e-05
1.7332000367013398779e-05
1.7355082855041731863e-05
1.7382569505081210177e-05
1.7415845210160566604e-05
1.7454563138702386442e-05
1.7497346132924777244e-05
1.754238305713445273e-05
1.7588011668329834176e-05
1.7633122725730943645e-05
1.7677641885926677925e-05
1.7721038716958010015e-05
1.7762209276331870195e-05
1.779972615673065277e-05
1.7831499611426281869e-05
1.7856354170684960207e-05
1.787371379075219566e-05
1.7883313723653996961e-05
1.788671689851583659e-05
1.7884986954516533158e-05
1.7878481097464289618e-05
1.7867960430080795608e-05
1.7854438478385906228e-05
1.7839010730868474282e-05
1.7822679940163627414e-05
1.7806330072197725352e-05
1.2730656141350758854e-05
1.2713320206625700409e-05
1.2698127307411279048e-05
1.2681082222388810683e-05
1.2665729016420933801e-05
1.2648861044834938021e-05
1.2633235799327348977e-05
1.2616351862603948151e-05
1.2600716460176432203e-05
1.2583618421848681177e-05
1.2568231840297364142e-05
1.2550941142343535317e-05
1.2535828237614928289e-05
1.2518516149549224322e-05
1.2503543314318591126e-05
1.2486343806594339383e-05
1.2471296860847930348e-05
1.7957766298785759188e-05
1.7969700633022810755e-05
1.7983576217559774942e-05
1.8001046050611534994e-05
1.8023450197797986319e-05
1.8051916605886115792e-05
1.808693542220752006e-05
1.8128161760401592418e-05
1.8173868519802897887e-05
1.8221701934305860196e-05
1.826900539628583932e-05
1.8313809754735052137e-05
1.8355275211252858195e-05
1.839251718703528005e-05
1.8425121705974864891e-05
1.8452387148449629758e-05
1.8474191957139280616e-05
1.848938752153604851e-05
1.8498159300325573567e-05
1.8500353985096201965e-05
1.8496201445464927163e-05
1.8486926349176913581e-05
1.8473949952621550444e-05
1.8459002851033571376e-05
1.8443545955571139541e-05
1.8427683018094829359e-05
1.8411964014746227741e-05
1.3050743316466453681e-05
1.3034371982508534329e-05
1.301152243497018616e-05
1.2994855816472201921e-05
1.2971673846384986672e-05
1.2954809483705880652e-05
1.2931548165926572624e-05
1.2914963919689329068e-05
1.2891860418402129276e-05
1.2875660854524484397e-05
1.2852479015956537348e-05
1.2836575032083026284e-05
1.2813218691504950778e-05
1.2797239174410573881e-05
1.276983484562797603e-05
1.2763119974310715049e-05
1.4057148789310322705e-05
1.4061773110436613996e-05
1.4068721749567309306e-05
1.4080194372333789226e-05
1.4097369312638644603e-05
1.4121210704724170262e-05
1.4152348761170797594e-05
1.4190585011832230276e-05
1.4234103347703663494e-05
1.428000204981699863e-05
1.4324462148021878166e-05
1.4364798176006901876e-05
1.4399469445461891265e-05
1.4427767435291628242e-05
1.444992252672450635e-05
1.4466828408586211865e-05
1.4479006120022904573e-05
1.4486713666653657821e-05
1.4490130434477770254e-05
1.4489142795280817919e-05
1.4483959033314664787e-05
1.4475556374736224397e-05
1.4464694559150598259e-05
1.4452923557455013337e-05
1.4440775686684289943e-05
1.4428846498517093003e-05
1.4416929445516118313e-05
1.4403835999979162347e-05
1.0140684347646282992e-05
1.0122652752212000704e-05
1.0109341409973784332e-05
1.0091177826909449825e-05
1.0077980828927586863e-05
1.0060128585936127548e-05
1.0047460744156583198e-05
1.0030013902206885606e-05
1.0017841287036312713e-05
1.0000449203915569638e-05
9.988409908663032716e-06
9.9707253549074174583e-06
9.9584373151995746892e-06
9.9374856113912628778e-06
9.9346274666752335241e-06
1.3337514053393105279e-05
1.3342745082096547373e-05
1.3352116084042498114e-05
1.336643846319047052e-05
1.3386596004697509806e-05
1.3414043169299048392e-05
1.3449267489234600429e-05
1.3491446955093448364e-05
1.3537842235702515791e-05
1.3585254541410421694e-05
1.3629945071125335737e-05
1.3669092643061679898e-05
1.3701367520767067674e-05
1.3726981847889437044e-05
1.3746207529871536221e-05
1.3759741893577924628e-05
1.3767888800755854044e-05
1.3770569723478431624e-05
1.376817382451571397e-05
1.3761814566116775142e-05
1.3752258110059707678e-05
1.3741136974797096232e-05
1.3729034708655971414e-05
1.3716371643052370591e-05
1.3702968710949411411e-05
1.3686743045280053599e-05
1.3661884607096456908e-05
9.6542198186419734001e-06
9.6418259372390455278e-06
9.6254881103305510746e-06
9.6133748465508608481e-06
9.5975676348095461608e-06
9.5861984896734442742e-06
9.5710020235227918721e-06
9.5602118740557297353e-06
9.5451329857130594433e-06
9.534398172168930845e-06
9.5188887627305025302e-06
9.5077661765885828282e-06
9.4899276407828531273e-06
9.4818520627388920081e-06
1.2841683936691709525e-05
1.2854818923560053392e-05
1.2871058483969772e-05
1.2890822812087332963e-05
1.2915243622664553759e-05
1.2945734573743331912e-05
1.2982163780732750721e-05
1.3022261931649679246e-05
1.3062776460615799147e-05
1.3100330537538762806e-05
1.3132688787030702979e-05
1.3158926795284028169e-05
1.317936663526052252e-05
1.3195086681112654065e-05
1.3206544565334722306e-05
1.3213876851390194845e-05
1.3216994928829862811e-05
1.3215679619031819029e-05
1.3210438573592982173e-05
1.3202273167689491137e-05
1.3192279153889753865e-05
1.3181483672195635793e-05
1.3170336634871759998e-05
1.3158863480515415313e-05
1.3146798519212442096e-05
1.3132778084494157732e-05
9.2885388440378470931e-06
9.2725831328885699261e-06
9.260818061918711945e-06
9.2456652443190044378e-06
9.2348222985934679918e-06
9.2204663915249501668e-06
9.2103156895731882429e-06
9.1961035353652496502e-06
9.1859290487497181015e-06
9.1712400746129306797e-06
9.1605764915479637905e-06
9.1438286685029239464e-06
9.1353632470541618326e-06
1.2359088033304704081e-05
1.2375406957696576877e-05
1.2394501766399544944e-05
1.2417773251676430759e-05
1.2446822103964765675e-05
1.2481777718310204148e-05
1.2520606749795661934e-05
1.2560429159838153133e-05
1.2598112081551115864e-05
1.2631040141531633969e-05
1.2658389178959856178e-05
1.2680401175449831555e-05
1.2697825193035453426e-05
1.2710800111592257723e-05
1.271925194152673461e-05
1.2722979761997116755e-05
1.2721856357996181989e-05
1.2716518020926069449e-05
1.2708553415515675208e-05
1.2698834004392237635e-05
1.2688611295103242247e-05
1.2678095187956911981e-05
1.2666979415631147532e-05
1.2654662030650151844e-05
1.2639326959145789949e-05
8.9189105831301315974e-06
8.9073865717040480005e-06
8.8926823540979489262e-06
8.8822066456008323633e-06
8.8684255686827755507e-06
8.8587218385988923241e-06
8.8451250088677127307e-06
8.8353952290850849784e-06
8.8213158086095430085e-06
8.8110427678564551588e-06
8.7948908693285878803e-06
8.7867752430027295298e-06
1.1936954847640549629e-05
1.1956086451214548207e-05
1.1979751569586271341e-05
1.2008928701308957968e-05
1.2043695188422178481e-05
1.2082509063305678406e-05
1.2122468562016781068e-05
1.2160154742597672798e-05
1.2193134813914797447e-05
1.222021862498907711e-05
1.2241430898985846692e-05
1.2257021325018975109e-05
1.2267422594549783749e-05
1.227247825957603983e-05
1.2272036407556005154e-05
1.226706596667584191e-05
1.2258886937555309721e-05
1.2248890077445829917e-05
1.2238690323575926469e-05
1.2228355836734081935e-05
1.2217756415224003915e-05
1.2206227504365679316e-05
1.2192238641407844471e-05
1.217165068219666189e-05
1.1506575611994053111e-05
1.152875509734716123e-05
1.1555573901748058033e-05
1.1586764579147753159e-05
1.1621011198584051621e-05
1.1655946799358043905e-05
1.1688906589030845644e-05
1.1717800081586735107e-05
1.1741708894803116862e-05
1.1760611224486992862e-05
1.1774877266787436584e-05
1.1784596786939139089e-05
1.1789709959620943956e-05
1.1790045264314149765e-05
1.1786044128221479939e-05
1.177896426529085637e-05
1.1770249032214696137e-05
1.1760834411677088183e-05
1.1751533865002532182e-05
1.1742060138417742904e-05
1.1731899848691316679e-05
1.1720316328235708285e-05
1.1705599402445210203e-05
1.1138429581221253049e-05
1.1162248504644226385e-05
1.1188988750381874637e-05
1.1217097130334221521e-05
1.1244904430173978751e-05
1.127079970818244745e-05
1.1293782752488257197e-05
1.1313481976316504897e-05
1.1329751856926311194e-05
1.1342143936123295315e-05
1.1350069188545949589e-05
1.1353278901492822205e-05
1.1351965569147226019e-05
1.1347130575182293996e-05
1.1340170639978224985e-05
1.1332199887111050058e-05
1.1323708767935340193e-05
1.1315023300151251612e-05
1.1305663811149570068e-05
1.1295068279955067226e-05
1.1282091140639794046e-05
1.0785209049470223343e-05
1.0811810410446502238e-05
1.0835586421235508873e-05
1.0855954939114008972e-05
1.0872319492243435627e-05
1.0884330181625924549e-05
1.0891751363928643215e-05
1.0894639183921036728e-05
1.0893522864834200299e-05
1.0889335041071163926e-05
1.0883336732100191605e-05
1.0876452909903471737e-05
1.0868967101266480398e-05
1.08610314816356559e-05
1.0852646456705212561e-05
1.0843493710847325041e-05
1.0833190895982157149e-05
1.0494632701146508117e-05
1.0506090158731824782e-05
1.0512463167490108135e-05
1.0514030426381215316e-05
1.0511563123109096606e-05
1.0506457397833996741e-05
1.0499975250240262649e-05
1.049276030063464211e-05
1.0485329490136662247e-05
1.047769719638459707e-05
1.0469341696245797448e-05
1.0459457644203243505e-05
1.0445798734324363504e-05
1.0087456115255336947e-05
1.0086178045994835929e-05
1.0081448902706987368e-05
1.007473448723063916e-05
1.0067141194005821517e-05
1.0059562640698049385e-05
1.0052326455182129258e-05
1.0045277942481980397e-05
1.0038055961244730154e-05
1.0030701250661175743e-05
1.00230367107990214e-05
1.0014700146998584417e-05
5.127338464739081774e-06
5.109296620777225957e-06
5.1101601381840795673e-06
5.1347258950552525546e-06
5.2517907349266827453e-06
5.4625567729784114726e-06
5.5970044695290618175e-06
5.6572876076510130773e-06
5.6692893658740307902e-06
5.6632583855372981726e-06
5.6357461605863583897e-06
5.5424096169412702528e-06
5.4419238982054643782e-06
5.3834093590125688635e-06
5.3576589608052959936e-06
5.3496062491601761564e-06
5.349752411461102146e-06
5.3763232920154395975e-06
5.4836776476735771437e-06
5.6268210895028832646e-06
7.2514452108721525904e-06
7.0994373735819854288e-06
7.0491775235335376722e-06
7.0463330367387420823e-06
7.0713214278535418348e-06
7.203631922969548126e-06
7.4878636703054744404e-06
7.6730191915587926167e-06
7.7518012347235296929e-06
7.7633003082129607247e-06
7.7514545104908629761e-06
7.7007386082384297101e-06
7.5338446053664413795e-06
7.3518647540847648268e-06
7.2392921547573114058e-06
7.1847215075572318382e-06
7.1651750394340080406e-06
7.1592414617583116941e-06
7.1673408782748692037e-06
7.2202524974306350275e-06
7.2864021921388851685e-06
7.3259419804682676089e-06
1.2433327572525268526e-05
1.2142738072431912105e-05
1.1987780420639542421e-05
1.1945350195742738498e-05
1.1947538275098253699e-05
1.1979963133754924529e-05
1.211131483150412489e-05
1.2367023585776119171e-05
1.253398434748978309e-05
1.2594850956138719297e-05
1.2592069188356650567e-05
1.2568820698332339476e-05
1.2500024057727553113e-05
1.2298081818472652798e-05
1.2066223822749013448e-05
1.1914760087129351669e-05
1.1841150455728995279e-05
1.1814254325112330041e-05
1.1804548811584887627e-05
1.1809710145667917287e-05
1.1857570361793090647e-05
1.1912822754157252362e-05
1.1939930327143071726e-05
1.1946014870530295566e-05
1.1940705653885151915e-05
1.1931031967143528264e-05
2.7038870970276462181e-05
2.6879158824769099778e-05
2.683160934433447204e-05
2.6835979457677001806e-05
2.693362201226720136e-05
2.7274332276329057572e-05
2.7671149571086015771e-05
2.7916846333731929153e-05
2.800504367118983033e-05
2.7995532787175223498e-05
2.7943050206566656749e-05
2.778573843218507783e-05
2.7426417379318706463e-05
2.7122329606824817344e-05
2.6946934873874639504e-05
2.6872307590747939398e-05
2.6851282761562547967e-05
2.685492855567921336e-05
2.6944431843374805618e-05
2.7114278993659610904e-05
2.7221509294141181128e-05
2.7264271949324555704e-05
2.7259149697402210838e-05
2.7238309062297017823e-05
2.7199412265256216366e-05
2.7101664160932068779e-05
2.6958740216976053957e-05
2.6840045652642738447e-05
6.197779934511781321e-05
6.191683219937400937e-05
6.1905866914985311624e-05
6.1994763296048155973e-05
6.2291696984871392255e-05
6.2570327079632237347e-05
6.2738120016211237841e-05
6.2787080999802467158e-05
6.2750322471097778388e-05
6.2665652816898802257e-05
6.2475205906503070976e-05
6.2098640355782519853e-05
6.1759502924762087086e-05
6.1508677505397196957e-05
6.135556647940038663e-05
6.1279507154948307103e-05
6.124635349369548609e-05
6.1233208553855108711e-05
6.1268429550313054143e-05
6.1278423101732054147e-05
6.1245276826609501195e-05
6.1204080787290735324e-05
6.115213804487449516e-05
6.1056306540253175389e-05
6.0897119115107510589e-05
6.0742807780599492224e-05
6.0594747646745840115e-05
6.0461278881901109133e-05
6.0339524502465927277e-05
6.0238146826271940309e-05
0.00010030141012089280003
0.00010017234919841142731
0.00010007638793928347559
9.9982887615251839816e-05
9.9869797702337889081e-05
9.9713474647612201571e-05
9.9516510469227679688e-05
9.9288487110383403405e-05
9.9032325140739672995e-05
9.8758434185167046169e-05
9.8485509539344314703e-05
9.8234858566841694229e-05
9.8022574746415693588e-05
9.785426777435816308e-05
9.7723928891091038575e-05
9.7617594939909238029e-05
9.7516080366743295772e-05
9.7400134735169943342e-05
9.7255671618480857808e-05
9.7079935107507143934e-05
9.6882159308864628238e-05
9.667910793006336532e-05
9.6485238532759661011e-05
9.6307649185480056066e-05
9.6143403434570463601e-05
9.5985586902444080528e-05
9.5828581365662633229e-05
9.5671079770267146197e-05
9.5514473644120080208e-05
9.5360827799420314565e-05
9.520702566093711865e-05
9.5049215229927837886e-05
0.00012396005035157308901
0.0001236889039085822871
0.00012342721744113840064
0.00012316825316703475073
0.00012291358477392358667
0.00012267108888696387514
0.00012244561494569234684
0.00012222944108165873086
0.00012200746866394661253
0.00012176919913980758234
0.00012151641350891976634
0.00012126161216605203818
0.00012101778874735761248
0.00012079307337166553477
0.00012059081170223564063
0.00012040858887939537747
0.00012023698192457348975
0.00012006264103901638756
0.00011987426953442559252
0.00011966868355870481763
0.00011945391915127091971
0.00011924387732835824681
0.00011904845797935252377
0.00011886826413409393817
0.0001186949523291610316
0.00011851862578987218475
0.00011833379262016329033
0.00011814287070779623621
0.00011795133419028031691
0.00011776374717096252864
0.00011757740848474017639
0.00011738679297535908636
0.0001171840575913403557
0.00016158374184245286541
0.00016068515539259379567
0.0001597768970472344095
0.000158861367034320494
0.00015798200497734308828
0.00015717534792725461898
0.00013629317234432796802
0.0001360232378679947598
0.000135764778270171016
0.0001355110771168822675
0.00013526412743016826262
0.00013503252420533863251
0.00013481962960261908839
0.00013461462991355908057
0.0001343989226141070845
0.00013415977827584409468
0.0001338998890317944575
0.00013363433255772152889
0.00013337951281662988414
0.00013314558876986967739
0.00013293627311110364059
0.00013274948728751905023
0.00013257539625576302174
0.00013239782798385603792
0.00013220255986986741885
0.00013198691383264091279
0.00013176162112711958742
0.00013154297753349342343
0.00013134150140063570694
0.00013115685121415076317
0.00013097896347758104796
0.00013079576433411722186
0.00013060197714023720527
0.0001304009129638531697
0.00013020012583902831871
0.00013000371279455193402
0.00012980857328344507667
0.00012960552278354296719
0.0001293882674617890193
0.00012915605187751292736
0.00015598072684283635983
0.00015507630211010321416
0.00015419774474246576387
0.00015333158536573875011
0.00015249371390292193159
0.00015172822282734119517
0.0001510509123836389217
0.00013324557594944250551
0.00013306958856548479738
0.0001329092595042513235
0.00013275683494509419777
0.00013261480897552759949
0.00013248858945736231157
0.00013237426654892869805
0.00013225385022288562147
0.00013210867217016658928
0.00013193606759735566967
0.00013175190745289973543
0.00013157839277087483116
0.00013143113372952552301
0.00013131376069742893803
0.00013122034814153763264
0.00013113806872556472592
0.00013104936730234654943
0.00013093643187633914235
0.00013079160984093106531
0.00013062347663605390776
0.00013045142478659876081
0.00013029392147129352313
0.00013015630116633550078
0.00013003017321169097571
0.00012989983932667475562
0.00012975290315256384475
0.00012958814870232351923
0.00012941359344498693396
0.00012923881079261614977
0.00012906702993053595775
0.00012889320686614158117
0.00012870915743977035819
0.00012851299093760354462
0.00012831215755273469399
0.00012812185764385516061
7.4143876094916320607e-08
7.4260618698176048481e-08
7.4442735050953113272e-08
7.4671758530500127139e-08
7.4944572131867157584e-08
7.5144761655593848443e-08
7.5478028136951468201e-08
7.576079497262610214e-08
7.593533670744436526e-08
7.6194254117544848692e-08
7.6514432153020523514e-08
6.8317482159760378087e-07
6.8256669713519136798e-07
6.818973690148331052e-07
6.8121730626389007352e-07
6.8060078379774407478e-07
6.7991541772356779811e-07
6.7866495421933726381e-07
6.7621750113212966573e-07
6.7371471537664920737e-07
6.7128019897948697322e-07
6.6886369300026181042e-07
6.665415694353481595e-07
6.6445038827541273831e-07
6.6263556445212105267e-07
6.6102934834981290872e-07
6.5956203216837460934e-07
6.582636929181727218e-07
6.5719226889317955922e-07
6.5636960879765352174e-07
6.5574817720586138878e-07
6.5522773402813410389e-07
6.5466950158053633276e-07
6.5389351258067991186e-07
6.52582794953640681e-07
6.4982662470296600883e-07
6.4264563725058681235e-07
6.2202641621512078663e-07
5.9079908720430264598e-07
5.5844622380426210944e-07
5.2560887929573288756e-07
4.9259812340177644428e-07
4.6006829188721620102e-07
4.2817108738295484607e-07
3.9757637718974022789e-07
3.6808140870157851393e-07
3.4043039338758627031e-07
7.6796193137500903346e-08
7.6886467008442394956e-08
7.6914301300855584149e-08
7.7019672331884990835e-08
7.7064353797647873567e-08
7.719206023622909796e-08
7.7252791808307361766e-08
7.7371424856381545272e-08
7.7498113104573281267e-08
7.7587107742357961833e-08
7.7795079602935705377e-08
7.7907774850758660685e-08
7.8065755772011560419e-08
7.8268118363198173208e-08
7.8497433422034669341e-08
7.8672522623431580749e-08
7.8985615919913987769e-08
7.9237042021562166881e-08
7.9409063445546209209e-08
7.9710808388229051153e-08
7.9990992665127369733e-08
7.0072849928169548077e-07
7.0092414145874620733e-07
7.0053890798162256897e-07