/*--------------------------------*- C++ -*----------------------------------*\
  =========                 |
  \\      /  F ield         | OpenFOAM: The Open Source CFD Toolbox
   \\    /   O peration     | Website:  https://openfoam.org
    \\  /    A nd           | Version:  12
     \\/     M anipulation  |
\*---------------------------------------------------------------------------*/
FoamFile
{
    format      ascii;
    class       volScalarField;
    location    "0.0059";
    object      k;
}
// * * * * * * * * * * * * * * * * * * * * * * * * * * * * * * * * * * * * * //

dimensions      [0 2 -2 0 0 0 0];

internalField   nonuniform List<scalar> 
106891
(
0.014815376109819382647
0.014810558274014782795
0.014800501670006915161
0.014795113757112799899
0.014784665839045571523
0.014779054339462327841
0.014768472352300072298
0.0147627545987546651
0.014751989604391836999
0.014746479800301401375
0.014733446555811208559
0.018514138281459882607
0.018626934208245789909
0.018722412140337239134
0.018801228495087772552
0.018866754045936896117
0.018925036164915129411
0.018984085037843635713
0.019051313255826068938
0.019131698595429531135
0.019228889345292259072
0.019342452710738172739
0.019470734226020282309
0.019610417937597855037
0.019757116092331425405
0.019906064506121236291
0.020051977098160381208
0.02018967482381894829
0.020315545491628575481
0.020426240444958079084
0.020519650875349119967
0.020594526287665712583
0.020650068908891799219
0.020688905470386979857
0.020712799872653585298
0.020724701963589341885
0.02072935739886201667
0.020730091826661415505
0.020728904539414540198
0.020726847974166302813
0.020725740709600894845
0.020724786865061250313
0.020721843274590822509
0.020708005477605095912
0.020674110509253704193
0.0206340047745704816
0.020595307373308446852
0.020555978150311723929
0.020521037977472299935
0.015653947156723496681
0.015639621145794108809
0.015631762042270902491
0.015618606936748415104
0.01561178528200622001
0.015599412466989254558
0.015593396921218789439
0.015581765750453648034
0.015576146176635096222
0.015564737281502653149
0.015558880330204921325
0.015546879674937143928
0.015540509287683558493
0.015528117122205489786
0.01552140046190652288
0.015508847757295485953
0.01550212299757913921
0.015489283035130842203
0.015482777104516547845
0.015467193069539118128
0.019556619870493823637
0.019664235854588280744
0.019753744285267830355
0.019828773484701047586
0.019895892539826258438
0.019963922099315880437
0.020041065959554772713
0.020132211039049222739
0.020241128993164807931
0.020366886413967173752
0.020507417809959026939
0.020659373805713213135
0.020817987905618340339
0.020977880711721446499
0.021133734961164055838
0.021280397342343462114
0.021414027204030332968
0.021531453800831368978
0.021630363592444558363
0.021709971064152781828
0.021769088140532910636
0.021811062790568054581
0.021837359814570394406
0.021850972065169938646
0.02185670349223837669
0.021857878962496184172
0.021856718845581990518
0.021854506069833419535
0.021852517309073300061
0.021850135687873768059
0.021843487943536663703
0.021820485371105983324
0.021777209364332174302
0.021734521295099975408
0.021690868065186094671
0.021651327291510136935
0.016454199969361271022
0.016438482613036039387
0.016429942653753415449
0.016415040865202103204
0.016407177165948944042
0.016392828877941269944
0.01638570465076267732
0.016372121433221947795
0.016365473973348823589
0.016352054412434004899
0.016345156752184064608
0.016331100192042952157
0.016323607163311246865
0.016309179989891165602
0.016301435015315446364
0.01628683463634438694
0.016279111368947746241
0.016264149847568135782
0.01625664098069629776
0.016238441030665615172
0.020777522283850501789
0.020863311316302889098
0.020930583933657403994
0.020985521880083374269
0.021037558251823258032
0.021095147027902213382
0.021164317950761964149
0.02125021214862196639
0.021354640665299198798
0.021476437090128981666
0.021612138712158873027
0.021758575385151131959
0.021910424830254526113
0.02206339164186294638
0.022213428722446065117
0.022355890981874623064
0.022486746692550133725
0.02260470225900177571
0.022708387685598817318
0.022797768338552112932
0.022872398994559353658
0.022932758758667234206
0.022978817909514316631
0.023011923970565204695
0.023034848835707281284
0.023047576965828920487
0.02305343367989610634
0.02305567080128178778
0.023056624839206396604
0.023057494016236183831
0.023056955367442087679
0.023053404290870594534
0.023034415715789333112
0.022984718043505818208
0.022928546268621865373
0.022878300804787234102
0.017279480747913734257
0.017269899281703009891
0.017252786949665283034
0.017243572823861047505
0.017226994166450796536
0.01721859219782882755
0.017202792220792195027
0.017194906600097859678
0.017179358477721031612
0.017171483533164662999
0.017155336027868488963
0.017146748408176464701
0.017130170519627358622
0.017121402729708832396
0.017104674512953246118
0.017095984555479316891
0.017078880676371976932
0.017070357048627988333
0.017049446116566280285
0.022004602852826623399
0.02205563674451834974
0.022093240789527526791
0.022127120802727311827
0.02216852370225773361
0.022225544426317630359
0.022304203696321966977
0.022407524050544181532
0.022536527223773084039
0.022688357285752462633
0.022859969909382393122
0.023047398039361476074
0.023243875160421392095
0.023441689275690850286
0.023633355003015263374
0.023812115489348202602
0.023972340229912628834
0.024109086516655636734
0.024220784821765303785
0.024306107224440952341
0.024367029369592365512
0.024407528619887475935
0.024429915536122812775
0.024440130105374064523
0.024443161689215259225
0.024442511701558009701
0.024439792841873083512
0.024435095499858824897
0.024427990590634957729
0.024411074381356655943
0.024363177394099128081
0.02429821492788505205
0.024232320136747618339
0.024172186566361223564
0.018183578807584588333
0.01816388271803389548
0.018152857351909166411
0.018133212991799724928
0.018122437788226732069
0.018103356833987574448
0.018093602772787879124
0.018075517235282237416
0.018066476421121580032
0.018048690532883566312
0.018039723800499757322
0.018021404715623325771
0.018011854526647760877
0.017993043736217923662
0.017983244622161803639
0.017964225004628273791
0.017954492801813340397
0.017935280535662522644
0.017925759411214135103
0.017902226951529317395
0.023076023512019448736
0.023160914609300475853
0.023225735307954402387
0.023280563059225743011
0.023335490981556784168
0.02340085445410965137
0.023484429070176827264
0.023588827605627121081
0.023716096768429201225
0.023864917286705117361
0.024032700647064593469
0.02421405663843408107
0.02440363458357682272
0.024594967660956767314
0.02478099516902628266
0.024955885195022349532
0.025115277320339936956
0.02525697953083671371
0.025377623936311516362
0.025476676542856395435
0.025554100530558246374
0.02560993907277772999
0.025648806670018203802
0.025671279211144329424
0.025682195694521851165
0.025686187200558971422
0.025686118152488706529
0.025684294982833779514
0.025680074436337529259
0.025673327946075259059
0.025656803845163445033
0.025608270079548973996
0.025544038424934179671
0.019092853109532861855
0.019080200970608116734
0.019057988314476619757
0.019045841544478692153
0.019024388242850995973
0.019013253235211753644
0.018992664205780197817
0.018982464277854101814
0.018962509072558916129
0.018952482342081876376
0.018932007215522839855
0.018921314523513258626
0.018900204215172761862
0.01888927595358843442
0.018868023960407698941
0.018857210720954989402
0.018835987106055628038
0.018825452852588742125
0.018799305796715064243
0.024339939086777791222
0.024413732415405647869
0.024478768264749373174
0.024544289436790635295
0.024618207136854336481
0.024707827842770091475
0.024816621207693602413
0.024946776887481949408
0.025096879343984444116
0.025264847248357764908
0.025446467546543678762
0.025635579051445787219
0.025826486797272119045
0.026012911816869384307
0.026190028148794092244
0.026354267798176178594
0.026501887441654881084
0.02663091619095798307
0.026738944939790131733
0.026825689944567212425
0.026890085716239884445
0.026935377735310076647
0.026965005400937817892
0.026981283985157068772
0.0269888111412447812
0.026990751175835863557
0.026989687866288612078
0.026985853438290557244
0.026979592638994163295
0.026968392928682641957
0.026937706029936878127
0.026878145313672351102
0.020068752699859346289
0.02005453381769703447
0.020029958455648397969
0.02001656350195264028
0.019992928931419386152
0.019980684297200238669
0.01995795324539637039
0.019946628072905765727
0.019924388518572283546
0.019913112170897483838
0.019890353744042681139
0.019878531527224990727
0.019855021596350441726
0.019842834384752129628
0.019819211243249128945
0.019807197930466920871
0.019783820336215285351
0.019772224858187536362
0.019743552059628726586
0.025714015364386819118
0.025786081512260694559
0.025859197527820256685
0.02594105144280150349
0.026035788291893242896
0.026148102081432107041
0.026279433413850375456
0.02643025504773827139
0.026597592889586046949
0.026777195721877308093
0.026964417830509207485
0.027152490141709041682
0.027338042232731531861
0.027516467245409226977
0.027686002975081790839
0.027843525818918815617
0.027986353666966088533
0.028112100162235777873
0.028218689217829939775
0.028305509144619683815
0.028371341536704831193
0.028420029846994605827
0.028454380494537499097
0.028475066750140078792
0.028484391085425168205
0.028486258820121620333
0.028484583218972105156
0.028479470400063367636
0.028472066063680225023
0.028456154592511353346
0.021083382457387743469
0.021056890853625807175
0.021042457919554360263
0.021017163883289821658
0.021004206691838438192
0.020979572275362158573
0.020967129331156467847
0.020942565937250551267
0.020930000479596221064
0.020904824634802834232
0.020891742269098945856
0.020865756973279761533
0.020852309382615400596
0.020826369701131611928
0.020813178664496636422
0.020787690428066336878
0.020775044940767848495
0.020744233481458290713
0.027110394050994704451
0.027183290366904727664
0.027260375642049770872
0.027346913240248491711
0.027448673597575884431
0.027569829856306828086
0.027712179324766449823
0.027874861338351524659
0.028053135676581637814
0.028244318950337674035
0.028441761594681147507
0.028641387918205904461
0.028840023515757744893
0.029032826489246169044
0.029215719469031255912
0.0293846070669501018
0.029533917378479785515
0.029661881347685947058
0.029766920880712435804
0.029847212526722084053
0.029906297856047842076
0.029948772274203089294
0.02997487665440927429
0.029987884010444294108
0.029991113742675191978
0.029989679312528279287
0.029984657899361909228
0.029977951864186051789
0.022224861181735940802
0.022198948100547965384
0.022184284698505224442
0.022159719090452209556
0.022146272698849729654
0.022121691962111895979
0.022108678699325135658
0.0220834803618027882
0.022070156991303078314
0.022043995855309504034
0.022030065024014628544
0.022003309479935263815
0.021989205258457631548
0.021962242880972569076
0.021948434006670680674
0.021922010562891811741
0.021908762520310567229
0.02187953276944906017
0.028556197788939211013
0.028658701401860414704
0.028766425438660817721
0.028885235418625077736
0.029019649821941162493
0.029172947894966889948
0.029344035111687382517
0.029529792566275216842
0.029726002322071488904
0.029927510709103398445
0.030128830776615541515
0.030326591958278657779
0.030516119671990298012
0.03069277811255245389
0.030853290780908128321
0.030993444096983378128
0.031112031755240604491
0.031208424677946600134
0.031281192875721140767
0.03133457603488135762
0.031371742145828475368
0.031394181171274619657
0.03140522264176613676
0.031408660410764309423
0.031407530435153367676
0.03140360560650357763
0.031397732598932852344
0.023172821372149165348
0.023141521132403468364
0.023117653715348119442
0.023086806130467967674
0.02306198837252722289
0.023031621713886823305
0.023005728881467953778
0.022975230483430732209
0.022949142600620003885
0.022917570891699472896
0.022891991090830041827
0.022859219587808937008
0.022834145366848971476
0.022800837276137641413
0.022775953496367452172
0.022742886767160873374
0.022717664481794165587
0.029235178809812821521
0.029308048906300121494
0.029387751801570681509
0.029481900652284415837
0.029595996243867363218
0.029732965593579803454
0.029892560253436856882
0.030072224080966731413
0.030266454919311756855
0.030468896694169061296
0.030671966005599047428
0.030868964162043002752
0.031055412867585962394
0.031225972013780040754
0.03137757282055522734
0.031507560135154683012
0.031616582321166326885
0.03170241011838419859
0.031767458451336778869
0.03181294668335158532
0.031840789229299802654
0.031855341885128882207
0.031860395764344642822
0.03186021122619445145
0.031858193015495479827
0.031853704731877985346
0.031848531739759065873
0.02314711850962706402
0.023120552792199225434
0.023071255856273824997
0.023044114667595691492
0.022993994420593074496
0.022966195768163277791
0.022915499738079981445
0.022888029308717586924
0.022836986549105701971
0.022809889030310882135
0.022757642646034199896
0.02273093618027647797
0.022677814087579222652
0.022651020541221901505
0.022584152540211812482
0.022591022894549429856
0.023642814789206097886
0.023686260377104084718
0.0237360324194116519
0.023802677162861850257
0.023892808367904149608
0.024009852794836975681
0.024153667275176801676
0.024320817162576925663
0.024503803302642998552
0.024693481579317253655
0.024878940502214889896
0.02505293366739197794
0.025210573387761558983
0.02534805906983323906
0.025463860177409033264
0.025558977065427514186
0.02563450414130413052
0.025691905036164780496
0.025733578569289827093
0.025761295820969202369
0.025777346746842767777
0.025785628061943503819
0.025788277653300668846
0.025789106676904226256
0.025788070485495879353
0.025786157015538570952
0.025782492232475036353
0.025773799258522585298
0.018455887279998535455
0.018416697603717033932
0.018394922853531014278
0.018355474117567740361
0.018333782428371938472
0.018294670198762231356
0.018273767900058898728
0.01823488325711105848
0.01821463813636724216
0.018175091860374768815
0.018154920518037458155
0.018114412457988841171
0.01809392208687879422
0.018042521356214976519
0.018057543213343012212
0.022144165938325154064
0.022184882608911705298
0.022241119353554821003
0.022318917552422563172
0.022421650830793546372
0.022551448821932853356
0.022706069175371518254
0.022880304792886625026
0.023065498887328776678
0.023254025195368992901
0.0234366807772568575
0.023605416378206671435
0.023754618378125896827
0.023882141074661574626
0.023986013123621714033
0.024066910533491241153
0.024126144689760941481
0.024165212001803944297
0.024187600264015118867
0.024198633016058023609
0.024201277834658859595
0.024200715238338447316
0.024197848800895611215
0.024192855357292562812
0.024184131149519508958
0.024164089024967454894
0.024112877545274833541
0.017405145306623615725
0.017386836497355510206
0.017354056471800442113
0.017335894850924571386
0.017303615134726380714
0.017286435922669842608
0.01725469436129322548
0.017238260170076756539
0.01720610957803806601
0.017189679115724589009
0.017156410439593296202
0.017139550475964920179
0.017099204698586199097
0.017094828953152299555
0.021353061150490633413
0.021420950430986834129
0.021505049614021561066
0.021607173145037322781
0.021727830762424321653
0.021866971317604254332
0.022021043197448835621
0.022182985746352416184
0.022345501161242679183
0.022501330519078328873
0.022644926421635295372
0.022772187481642818668
0.022881238801069805899
0.022972629104387347343
0.023046186450719569061
0.023102780538962339879
0.023143929557598589414
0.023170685732164360282
0.023185838670887238405
0.023192819751657326593
0.023194656455299448444
0.023194168111781446329
0.023192409200235550998
0.023189095507269521373
0.023183236607455907918
0.023170239211267634055
0.016769768584879878037
0.016738234112545626736
0.016720920070627681014
0.016690279777314964704
0.016674053059406869493
0.016644229750131411816
0.016628969981733292272
0.016598863807461314984
0.016583533517218512071
0.016552459725228993448
0.016536659085662572949
0.016499704722615211178
0.016493425374626276975
0.0205739737063075738
0.020657772091683197085
0.020757266951327169729
0.020873751531734457965
0.021007703379077126427
0.021156430907173916223
0.021313590437541045375
0.021473001821521228022
0.021628278783176847072
0.021772723531987971807
0.021902680029569149972
0.022015982857559877189
0.022112090312213200649
0.022190060239191160968
0.022250348532012836217
0.022294086110195888289
0.022322389464964207534
0.022337807180887295916
0.022345266980571192733
0.022346863074866954446
0.022346455664638574523
0.022344845627372968144
0.022341285819015819364
0.022333873477971711435
0.022316061225243676025
0.016097015524696237088
0.016079970256038061266
0.016050150462559548831
0.016034310037978633662
0.016005554688397660018
0.015990896895584222337
0.015962063403926900901
0.015947470414417515977
0.015917819609627958943
0.015902689744456764698
0.015867140964110942186
0.01586129612371909095
0.019972850272995664594
0.020071870592651405718
0.020189001836492245084
0.020323145938465278504
0.020471642734253347323
0.020629509631756082211
0.020790005800563043231
0.020945301617455176768
0.021089177719579219744
0.02121683359268547106
0.021325625502489755497
0.021413721820350496011
0.021481636424147243503
0.02152978209474575369
0.021559411632433425621
0.021575016614294208195
0.021581024363016090145
0.021581192722671015821
0.021580100778225759506
0.021577687508709489372
0.021574061373607126418
0.021567628574505611633
0.021553309384202919141
0.021516150954780148552
0.019319405650331088892
0.019430065661902213431
0.019555382084394994091
0.019691886511573455931
0.019834971650616674971
0.019978926154002565191
0.020117760270793955124
0.020246128483439356643
0.020360407169686685347
0.020458478054523245721
0.020539702285273908622
0.020603866131844533749
0.020651779428876176209
0.020684282249667420434
0.020703486795487602984
0.020713138741787963382
0.020716919486990333782
0.020717116789052834186
0.020716556773275319331
0.020715016461469080988
0.020711674455451974108
0.020704300362151175502
0.0206863506939443699
0.018881521819848336857
0.018992767938798036514
0.019110700753200073054
0.019231597493666045123
0.019352167784991883975
0.019468556247937397752
0.019577263397862382927
0.01967572147623271317
0.019762211815716898555
0.01983501139153607748
0.019892935407485420884
0.019935928723378584793
0.019964664507570707708
0.01998161939162654277
0.019990374136133810812
0.019994037215262237817
0.019994568769368680633
0.019994142849015964641
0.019992014592623365971
0.019986437059301642716
0.019972839260506067283
0.018502070585995004925
0.018619059552760792303
0.01872829003204049339
0.018827100361464007422
0.018912719703497629653
0.01898390517368114469
0.019040259389305844856
0.019082218529849436645
0.019111108472672819203
0.019129040674951316992
0.019139286373405076103
0.019144654576816470121
0.019146712296632777128
0.019146997487755661183
0.019146333027592735143
0.01914375677613979615
0.019137413972970009068
0.018313115113219809865
0.018382982193360070111
0.018436410588478731321
0.018474041756167767364
0.018497666280530719596
0.018510992219744226706
0.018517613575969781026
0.018519793306080507833
0.01852012624722892617
0.018519654654739731159
0.018517184528262509158
0.018509928913647364507
0.018489609006328792257
0.017614133158316520184
0.017640806691446325738
0.017655863391443517296
0.01766333644368954861
0.017666057626438334133
0.017666664802426030462
0.017666635402394877813
0.017666304401570288168
0.017665291293769123243
0.017664225344389161698
0.017662526647658022272
0.017658760792072344253
0.0085366036990607851997
0.0084768387786209892926
0.0084839968623798799052
0.0085748866059872884404
0.0089835133458091003672
0.0097393865315553301842
0.010247421129005888918
0.010490500009232147857
0.010552766684864092403
0.010544652706968865238
0.010455207068474315843
0.010124494259574935706
0.009773088903565813404
0.0095786921829649103455
0.0095044211781995947136
0.0094946009391086282764
0.0095135985756723516482
0.0096247694438465775796
0.010026567365042208385
0.010569859636419808371
0.017767969878255972932
0.017027995780632462081
0.016783555139556951413
0.016771837371663350647
0.016902393792626764502
0.017561490646135841792
0.019010444316678653393
0.020006801468064043525
0.020463548647784303436
0.020562240664796713197
0.020530469323769395817
0.020289241989062765242
0.019444001053037184706
0.018537667478190376913
0.017999221554688880909
0.017758210887451629512
0.017694383871613948711
0.01769852210411735835
0.01776992016398844243
0.01806120296174471701
0.018419587231459668558
0.018641808909608353212
0.054176411732964092904
0.051766307899090570344
0.050496591937099828684
0.050145747321496056403
0.050152870768647897504
0.050418658262795221225
0.051545693924168654865
0.053803654041196656566
0.055360680682126822694
0.056013469076128030721
0.056103963614245674907
0.05600190581608912449
0.055480620725559808004
0.053777869481577443567
0.051828493695924779394
0.050595433337584490296
0.050041600241216011025
0.0498958913429684639
0.049903352889294656791
0.050036946226796837067
0.05052909893242085726
0.051082740390138631215
0.051388961389264568858
0.051504752414153809337
0.051510114362044036318
0.05146427384001759503
0.26558534530061189693
0.26313049904173585469
0.26267298807390304649
0.26301146593303104115
0.26498735443638327114
0.27169131498869952823
0.27967859177852094632
0.28483850248416259232
0.28699203280323642984
0.28729006752127728141
0.28678115140650223269
0.28413357330814420498
0.27733078800565102995
0.27160603340452854626
0.26842497901953898953
0.26723656232007708677
0.26714230647272846353
0.26759353931307849894
0.26980922626585784885
0.27369665293721562316
0.27633920467404454735
0.2776477556983871775
0.27793803167313335667
0.2778639890555517078
0.27737864717494820077
0.27564378198540701037
0.27292501623722176252
0.2706413310706651254
1.4486052597552159238
1.4477231952531783854
1.4486086724670603765
1.4538171577386673761
1.4686705487367146539
1.4828094457509373161
1.4920323844132290514
1.4961745407078288483
1.4968691622819902953
1.495739230639342443
1.4896940380769847501
1.4745687783683512073
1.4608263284480813571
1.4508465679855322428
1.4451316100979512136
1.4428884968567841085
1.4427554340030817048
1.4438349245190329473
1.4475055532786034185
1.4501390163082015228
1.4505864369528898017
1.4502786499585589297
1.4490215763847176245
1.4453437850402675036
1.4384794625574530702
1.4317960362182959866
1.4254026451378036811
1.419685598214361022
1.4145229914181300934
1.4104114376522607355
3.9237852647477664547
3.919614801169963858
3.9176570587080288277
3.9158510854664934087
3.9124298334640923436
3.9051694009132718044
3.8940753896072086704
3.8801885325971245955
3.864409033631503565
3.848021352193717437
3.8323532215416231672
3.8185069976679484327
3.8071469728382667519
3.7983540170535059488
3.791554581684053904
3.7857926928372593878
3.7800124139404638335
3.7733254751883213984
3.7651657366418858075
3.7554496607416751885
3.7445115435709452889
3.7330503278322577643
3.7217621881052065369
3.7111880046206366934
3.7014633236017342455
3.6925056365966000271
3.6841162833790273012
3.6761202303738822472
3.6683840832405794075
3.6609238865525983719
3.6536116877232220901
3.6464289582109379317
6.2035487604401122752
6.1860730457426065243
6.1689171582852013742
6.1517818624083888679
6.1346538355665858333
6.1177708487661801584
6.1014347283735776983
6.085664282731384489
6.0702130008566168584
6.0548877673185801385
6.0397023108231362443
6.0248828015836322081
6.0106473702848912666
5.9971111519590829531
5.9843215323070166889
5.9721451775753875424
5.9603083314900286993
5.9484903674044291577
5.9364567880332685945
5.9240929030377227349
5.9115404264088615705
5.8991631937285946563
5.8872731979675974046
5.8759493779011959802
5.864989952249260341
5.8541537633525795314
5.8432336970631171269
5.832269558845924351
5.8213447611856521391
5.810661613728581365
5.8001618831491033035
5.7898325379743367236
5.7793285041277249192
10.177283701301011121
10.080706232226145147
9.9856773082668546238
9.8920394990289626236
9.8011421494618407024
9.7142526476221764398
7.7902025485072270428
7.7724308680475733269
7.7552099429930159147
7.7382221379430067287
7.7214358295702130164
7.7051079073918558038
7.6894216966395196877
7.6742003456010419171
7.6590282576104762313
7.6435421644637431271
7.6277668594183811734
7.6120544786990826935
7.596816867469076584
7.5822805424351198411
7.5684800139058987511
7.5553585091219499503
7.5426506493234182216
7.5299093262744136723
7.5166826914016171557
7.5028795092900173458
7.4888144257068169907
7.4749817372693598827
7.4617336427996079351
7.4491248909401530653
7.4368870212590412194
7.4246376237073850035
7.4121740913535525408
7.3995480146889187623
7.3869832166675610807
7.3746105104294255028
7.3623983866774640461
7.3500760825127429143
7.337534197171695638
7.3245649199554634379
9.8064387797489516174
9.7080050003609947851
9.6137103946088338091
9.5239119245142660475
9.4401507104266304538
9.3637726412522912511
9.2934217575984288118
7.7434510373675395911
7.73632728323368557
7.7302767122658453403
7.7248243444984883155
7.7199674352131921751
7.7156159462887350386
7.7111036391001963608
7.7054444647530209167
7.6982269657015622855
7.6901984636945659446
7.6828549912798873578
7.6774532010719553909
7.6743352100427637552
7.6729756561219861766
7.6722922176623535861
7.6709781846134363903
7.6678319710880327165
7.662228979254539496
7.6544838270524673263
7.6457782178384503524
7.6374476190074291893
7.6302401955608960549
7.6239301673989050556
7.6176525092829878716
7.6104894611887328182
7.6020255695982461575
7.5925097657922453465
7.5825224959449499806
7.5725096569852654582
7.5624986131535800737
7.5522432899107876381
7.5416182810921474911
7.5310146346974207177
7.5211995556021404852
7.5130225558647092399
1.2625596579820593933e-06
1.2680376728668499615e-06
1.2757942562263634649e-06
1.2852444997264704608e-06
1.2963144602802104875e-06
1.3049508738893303704e-06
1.318291727777217632e-06
1.3299828248042392831e-06
1.3378887105248246353e-06
1.348789751149384947e-06
1.3619233441993305852e-06
6.666492716792491184e-05
6.6674936549220370431e-05
6.66803974026917328e-05
6.6678052529595949042e-05
6.666751032884843831e-05
6.6615059388026057153e-05
6.642833698066613092e-05
6.5999360474407230484e-05
6.5570607064825434996e-05
6.5176858954753597746e-05
6.480521294372541092e-05
6.4459647987370779338e-05
6.4157120681315298874e-05
6.390395648773259231e-05
6.3690795297372589795e-05
6.3508326313240550396e-05
6.3361882000922118731e-05
6.3257254679982677218e-05
6.3192281055865850785e-05
6.3155262392126853221e-05
6.3129969033282366201e-05
6.3095983845138582289e-05
6.3024128539900550706e-05
6.2855169298287473078e-05
6.2412960384389173235e-05
6.113140567275609713e-05
5.7362973512124494331e-05
5.1820041491015628665e-05
4.6363659665437939063e-05
4.1128697821044570254e-05
3.6174997404488641009e-05
3.1597408018816591573e-05
2.7402760219606483462e-05
2.3655539576813571249e-05
2.0301267474753267552e-05
1.738944942777372621e-05
1.2701966614986626853e-06
1.2750889906281936808e-06
1.2778529911289327295e-06
1.2831337364179735188e-06
1.2863314869749674755e-06
1.2922473583004429494e-06
1.2958787415349483363e-06
1.3014127987508510756e-06
1.3072166566958488105e-06
1.3117420717975040857e-06
1.3203296936794994814e-06
1.3257459029236728394e-06
1.3327522696214447186e-06
1.3413545413779974909e-06
1.3509761868931950515e-06
1.3587888221519817666e-06
1.3714326664289605945e-06
1.3820204832744979028e-06
1.3898306290849197683e-06
1.4022157503041496863e-06
1.4138906200384150511e-06
6.6636871788228538294e-05
6.6810250580746669241e-05
6.687840649704849779e-05
6.6890967435437659523e-05
6.6876411378302748367e-05
6.6780180738335140388e-05
6.6452891397992644201e-05
6.6073715690260950272e-05
6.5797499627849638667e-05
6.5616666822258817599e-05
6.5503678618311433164e-05
6.5435862476719613349e-05
6.5411828049072399125e-05
6.5412475046627648447e-05
6.5433674628632236265e-05
6.5528194235055502734e-05
6.5746702685080400902e-05
6.5924322556962342175e-05
6.6037309472512156013e-05
6.6096209626121527189e-05
6.6119457579766390139e-05
6.6126952243680714081e-05
6.6118212007072697453e-05
6.6052584325912265398e-05
6.5799464617609398518e-05
6.4959294846862907272e-05
6.2246202028499493389e-05
5.6207807363561340251e-05
4.9977981792357576568e-05
4.4077473537816826328e-05
3.8565044835178749548e-05
3.3526444325900085482e-05
2.8952258148651577541e-05
2.4899244360677766499e-05
2.1296840587747802102e-05
1.8187947944055541034e-05
1.3303820260408471277e-06
1.3354209397348554981e-06
1.3396455412381445636e-06
1.3458172182822075387e-06
1.3501901614480022875e-06
1.3563241518100035069e-06
1.3598052823968423306e-06
1.3652964908870542507e-06
1.3690445875945444945e-06
1.3738311092338765569e-06
1.3810304015100818093e-06
1.3874522911365579093e-06
1.3946125504835600497e-06
1.4017047024680106593e-06
1.4107658740329730745e-06
1.4174874428547483134e-06
1.4286137659481981467e-06
1.4380816932334499274e-06
1.4464503615846967563e-06
1.4599874996678785632e-06
1.4705396764440111509e-06
6.9330492030381677066e-05
6.9303790540771825312e-05
6.9201324453517401407e-05
6.8868335173599492345e-05
6.841327133837608117e-05
6.8048705015742654381e-05
6.7770875619976628148e-05
6.7581263612481075873e-05
6.7460151982842429829e-05
6.7370940292908491009e-05
6.7301549750720828826e-05
6.7263559784955012557e-05
6.7254920805959235593e-05
6.72599503284230252e-05
6.729574354163915962e-05
6.7439361052398593245e-05
6.7678451449950378211e-05
6.7861990524841151189e-05
6.7977339665035521892e-05
6.8034797872317022698e-05
6.8058378957597457488e-05
6.8061800615913813539e-05
6.8033861743096332134e-05
6.7880839317888716326e-05
6.7321550621307380295e-05
6.5472936203448829748e-05
6.017815314081221813e-05
5.3465386488921626761e-05
4.7111866251757516817e-05
4.1214244762737945696e-05
3.5782774515698758809e-05
3.0913318252732131081e-05
2.6540665218369663484e-05
2.2731856793470698181e-05
1.3934368760497716683e-06
1.398576637713211374e-06
1.4054084523737040335e-06
1.4106148923451988686e-06
1.4166932106482655088e-06
1.4207309879550316308e-06
1.426153529880002102e-06
1.4295161114590212687e-06