/*--------------------------------*- C++ -*----------------------------------*\
  =========                 |
  \\      /  F ield         | OpenFOAM: The Open Source CFD Toolbox
   \\    /   O peration     | Website:  https://openfoam.org
    \\  /    A nd           | Version:  12
     \\/     M anipulation  |
\*---------------------------------------------------------------------------*/
FoamFile
{
    format      ascii;
    class       volScalarField;
    location    "0.0059";
    object      p;
}
// * * * * * * * * * * * * * * * * * * * * * * * * * * * * * * * * * * * * * //

dimensions      [1 -1 -2 0 0 0 0];

internalField   nonuniform List<scalar> 
106891
(
98707.98626280791359
98726.713542444718769
98742.91051968721149
98755.92038078144833
98765.626444609530154
98772.352519678664976
98776.651483447029022
98779.283406845497666
98780.981972090972704
98782.517518512628158
98784.733956890151603
99115.082728181034327
99124.34325561755395
99124.626329380917014
99109.68593475598027
99080.79199371697905
99046.648799938557204
99018.735329560222453
99005.404700165279792
99007.92111046538048
99020.726504174439469
99035.153397531699738
99043.831461615438457
99043.148752199747832
99033.662034260414657
99019.280016070479178
99005.426753660387476
98997.098465058996226
98997.580001696798718
99007.460518464344204
99025.657062073412817
99049.585028695088113
99075.483160943127587
99099.050893454637844
99116.301456403060001
99124.278498838320957
99122.104811855911976
99112.108219554065727
99100.011189065990038
99093.392594561853912
99098.77147867140593
99118.750780757909524
99150.639230725122616
99187.619316542535671
99221.822634565949556
99247.592312435474014
99262.938440438432735
99268.903493755293312
99267.702200144776725
98626.873092585999984
98622.855264739395352
98622.363625309168128
98626.230751991970465
98634.749874215165619
98647.610084881365765
98664.020619716495275
98682.881123448925791
98702.794358278406435
98722.253013033434399
98739.912990947297658
98754.820641854312271
98766.518474867407349
98775.055399489574484
98780.968208451464307
98785.052957644234993
98788.186006994044874
98791.048892147038714
98794.19570320622006
98798.010039600310847
99116.190618155145785
99118.693466395925498
99104.294608869749936
99074.942394188299659
99040.185767557253712
99012.002795905296807
98998.798220145807136
99001.993775068083778
99016.137375700898701
99032.388821051310515
99043.403355353642837
99046.006098944490077
99040.908056891392334
99031.757661455005291
99023.455136436503381
99020.143912740590167
99023.977602842918714
99035.680264713708311
99054.231624351567007
99077.076697844706359
99100.904715534808929
99122.183815243071876
99137.624493625204195
99144.670912383968243
99142.090255219998653
99131.114079448889242
99116.301134000299498
99104.82106367238157
99103.932041750755161
99117.851216878916603
99145.773775030567776
99182.251172199074063
99219.635020379195339
99251.196238925986108
99273.290560495501268
99285.340907214704202
98646.856216210726416
98644.110479790499085
98643.96775543280819
98647.382807523768861
98654.977080574753927
98666.800258162984392
98682.197521898517152
98699.971569439279847
98718.657902760925936
98736.737538820612826
98752.889281543772086
98766.250192285049707
98776.577986330958083
98784.194232423149515
98789.813511234169709
98794.309351444258937
98798.543989178171614
98803.088206701781019
98808.343138083349913
98814.382610900924192
99099.566095233356464
99105.579259207559517
99094.890536798644462
99069.821829710432212
99039.689643900695955
99015.538896424899576
99004.56125433431589
99007.421592395010521
99019.223511070405948
99032.288735308102332
99040.646479219765752
99043.028756971820258
99041.622612570703495
99039.379024712834507
99038.831376735179219
99041.872185113286832
99049.809206392936176
99063.180587706010556
99081.383311675890582
99102.611255707233795
99124.260460481586051
99143.418091298051877
99157.1729656533862
99163.128106843010755
99159.943755736705498
99148.051633834314998
99130.738090343773365
99114.104564794251928
99105.523422218277119
99110.706715738997445
99131.206581641032244
99163.697556641258416
99201.624265537786414
99237.856406498030992
99267.172900508201565
99286.872070225101197
98675.808671157676145
98674.940126247718581
98676.638219304892118
98681.831735270126956
98690.950942042371025
98703.705642629749491
98719.055668663379038
98735.507788822927978
98751.525878400614602
98765.840620893257437
98777.657261517641018
98786.79531392424542
98793.692271468054969
98799.219969988494995
98804.375217351000174
98810.038724420577637
98816.638106855141814
98824.323824992374284
98832.828825669683283
99085.821362398026395
99082.884942279240931
99067.502802362301736
99047.15788878739113
99030.586438979997183
99023.165345076253288
99024.466012368560769
99029.932866465343977
99034.721039082010975
99036.472975467331707
99036.193292506010039
99036.865523244967335
99040.709201507459511
99047.861384055388044
99057.468806889941334
99069.181794037882355
99083.534047924607876
99101.094297549367184
99121.284642789221834
99141.879163947465713
99159.7625549678487
99172.036730028383317
99176.698116832834785
99172.963814418355469
99161.183979476001696
99143.30976114369696
99123.500499751782627
99107.875720447700587
99102.83135841859621
99112.413106430845801
99136.552661798123154
99171.104346891355817
99209.443754722800804
99244.935646248006378
98720.166796934296144
98717.380128628472448
98714.793623399818898
98713.771241225244012
98715.564485191018321
98720.95928161602933
98730.034888312671683
98742.065933253688854
98755.67122239121818
98769.257764206820866
98781.507648044454982
98791.688028499251232
98799.73447783618758
98806.172911925663357
98811.89232015197922
98817.837584745953791
98824.799193863989785
98833.112959616541048
98842.847123769795871
98853.564731656253571
99063.198040531206061
99069.018526012892835
99066.225307633751072
99059.234533808179549
99052.901874441202381
99049.46928271757497
99047.635664807559806
99044.392057174234651
99038.70866444510466
99032.325798163568834
99028.575068582489621
99030.471847288121353
99038.531521041688393
99050.520326117970399
99063.488135131716263
99076.329808313996182
99090.522567438427359
99108.138724668417126
99129.220359681276022
99150.854963186720852
99168.759596424250049
99179.710747076256666
99183.023100121150492
99179.650297212268924
99170.516564406076213
99155.951940111015574
99136.873114287533099
99116.542981521328329
99101.146262121197651
99097.381371248629875
99109.138109982086462
99135.771449973763083
99172.225604119594209
98765.219094174448401
98760.346427870565094
98756.414758288941812
98754.902154213588801
98756.803108254331164
98762.378692727128509
98771.092552655973122
98781.75619606114924
98792.883090254646959
98803.17470825878263
98811.90296654147096
98819.031407139467774
98825.100265863453387
98830.952375714172376
98837.429279738586047
98845.194550214844639
98854.491264190219226
98865.377566790775745
98877.448614400651422
99051.214161487048841
99060.715808743829257
99067.846155325882137
99072.115776602819096
99072.003160826381645
99066.45289444658556
99055.669879305569339
99042.270821553014684
99030.74072301198612
99025.055222669427167
99026.910488059773343
99034.898583086614963
99045.542877090207185
99056.108372343544033
99066.830563981755404
99080.679011332773371
99100.416345470468514
99125.148995304305572
99149.9188338459644
99168.784318632649956
99178.803666882478865
99181.372742220453802
99179.969954269763548
99176.472490753149032
99169.297832754105912
99155.380448134033941
99134.00469215871999
99109.726953086108551
99091.788758175418479
99089.020782865962246
99104.535474435499054
99135.039888030165457
98814.441477793676313
98807.52822046871006
98801.611766032277956
98798.166277571843239
98798.081764281901997
98801.499880399642279
98807.860374466952635
98816.108615545323119
98824.995649596632575
98833.431178884027759
98840.787458092483575
98847.020658165463828
98852.582900990790222
98858.17631561748567
98864.509259588929126
98872.153757269392372
98881.357274274458177
98892.261061425379012
98904.594747421069769
99047.894059739817749
99065.312306705542142
99076.8236948451231
99078.830145919564529
99071.316358059018967
99057.616401730105281
99042.723726799638825
99031.615171310651931
99026.861599323892733
99027.556955764463055
99030.710925986481016
99033.725548647795222
99036.746642157784663
99042.935551543807378
99056.499672617923352
99079.720292681653518
99109.857545583232422
99139.414198882062919
99160.899932299696957
99171.87228059732297
99175.769433391469647
99178.183233741830918
99181.512180552992504
99182.418286978878314
99174.491722525126534
99154.346726691292133
99125.435320703181787
99097.366539023452788
99081.682477535083308
99085.135329301454476
98854.235397176540573
98848.045260703249369
98844.577245505148312
98844.407502004338312
98847.368337627020082
98852.709133117605234
98859.392334520409349
98866.40113525390916
98872.987295891565736
98878.813353120451211
98883.949423502825084
98888.784384388258331
98893.847221703370451
98899.633967062545707
98906.543231300776824
98914.78901282530569
98924.600113260516082
98935.889143756590784
99045.887265845172806
99061.316862011779449
99066.250138879273436
99060.506019699125318
99048.759849853595369
99037.655800212654867
99031.294038645602996
99029.566589574256795
99029.238498667007661
99026.791467547271168
99021.244128399543115
99015.591364448322565
99016.14543133447296
99028.726660165324574
99054.686304015893256
99089.21432528301375
99123.22711475592223
99148.711252875014907
99163.330011769125122
99170.647030802501831
99176.097650040086592
99182.174757964676246
99185.852584589374601
99180.891276655616821
99163.249166853973293
99135.461869252496399
99106.22698693916027
99085.178691005974542
98901.458393962675473
98897.301753553620074
98895.515705937490566
98896.256770193896955
98899.233592330259853
98903.796216014714446
98909.142907981135068
98914.556364613657934
98919.580929797666613
98924.089798577246256
98928.21775147561857
98932.279807710918249
98936.670352123692282
98941.754259617751813
98947.773431257839547
98954.811062841792591
98962.982669925928349
98972.173114614546648
99032.212685809790855
99040.92772224858345
99041.107067609991645
99035.606623690051492
99029.256703529317747
99025.918151016856427
99026.023427896041539
99026.445803806447657
99023.034009382186923
99014.822022585896775
99005.75326745439088
99002.792428093554918
99012.093351517629344
99034.992130224520224
99067.097685369852115
99100.967114829662023
99129.620500954581075
99149.617247198140831
99161.813742829937837
99168.772042783995857
99171.667991389986128
99169.898397021708661
99161.892458497633925
99147.004072674302734
99126.954674216118292
99105.585134054985247
99087.953712347327382
98950.240256822202355
98951.334520915173925
98953.443274869583547
98956.160870847859769
98959.133938892176957
98962.124894114691415
98965.057612188742496
98967.989843918694532
98971.084412589858402
98974.5533968830714
98978.567406910631689
98983.202361307077808
98988.453002066395129
98994.210943316749763
99000.232851522072451
99006.328521029368858
99012.260825496705365
98990.345459560907329
99004.99681856627285
99018.517601557497983
99026.285646925738547
99026.354312920040684
99021.237389920948772
99015.939473482285393
99014.301370346089243
99016.193868804621161
99018.414892282482469
99018.014502558711683
99014.982804381943424
99012.632408208679408
99015.662645496777259
99027.099784526144504
99046.845732215108001
99071.976488465603325
99098.323888134094886
99121.713460463157389
99138.200013520923676
99145.242788019735599
99142.467698309817933
99132.238537791621638
99118.237679249185021
99104.047144660202321
99091.78996015447774
99081.742351736465935
99006.986992974387249
99008.995969261100981
99010.13325440614426
99010.444289562234189
99010.254678355355281
99010.067993549237144
99010.45514670216653
99011.905885511339875
99014.695265600792482
99018.857565157493809
99024.147453508281615
99030.057572557285312
99035.9283397312538
99041.09341379966645
99045.017920228157891
99047.299714980777935
98980.032238649917417
98994.68117699654249
99013.158715911180479
99026.909868530303356
99029.037251585454214
99020.003980443842011
99007.438732250404428
99000.273144610080635
99002.928678287717048
99013.430915695251315
99025.32118809169333
99032.386362646517227
99032.66060900510638
99029.006336535690934
99026.99824003429967
99031.743068079755176
99044.671168612752808
99063.838195717122289
99084.192822134296875
99099.694593244188582
99106.048635203944286
99102.081247907161014
99089.294596727108001
99072.287840346019948
99056.341807135773706
99044.493890955098323
99037.156791879693628
99031.763761688824161
99047.194237289659213
99044.229559381725267
99040.208874762494816
99036.114508237515111
99032.956201341599808
99031.543583834441961
99032.314204384631012
99035.299401687763748
99040.13508875122352
99046.096354863795568
99052.255691093378118
99057.62743992752803
99061.337541215121746
99062.736340597359231
99061.513878492449294
98996.72541629835905
99018.80447761938558
99035.424199511515326
99036.916401184163988
99022.865297834199737
99002.795334150054259
98989.748043884770595
98992.086476294090971
99008.453261647606269
99029.133062896711635
99043.175132313495851
99045.102445091310074
99037.079899810472853
99026.615382751464495
99021.32979519777291
99025.550780494726496
99037.994319117846317
99053.129111843838473
99064.554764848493505
99068.059815445172717
99062.800397604936734
99050.411515342697385
99034.27595988860412
99018.134580539801391
99004.86845280250418
98995.276092534870259
98987.517413873079931
99060.848886016829056
99052.07959654336446
99044.149850965259247
99038.438273307852796
99035.825307579405489
99036.572544470705907
99040.320797993263113
99046.20142088351713
99053.006224404234672
99059.438052546203835
99064.271944757027086
99066.558698724256828
99065.756264544033911
99061.848394519416615
99031.098209409130504
99048.325442331086379
99047.518476572135114
99028.052011350198882
99001.217588105137111
98983.146349134898628
98984.396177467584494
99003.339115715454682
99028.131489663704997
99045.132323814075789
99047.24483582447283
99036.620839656708995
99021.67780672365916
99011.493369547126349
99010.890254902507877
99018.238292164780432
99027.668996904045343
99033.418615043352474
99032.23776987833844
99024.259711575956317
99011.920900407087174
98997.642553741898155
98983.061297017498873
98969.319965816059266
98956.644531599114998
98944.470661601153552
99051.001469948809245
99039.455744450388011
99031.445415197522379
99027.892552076067659
99028.864899022562895
99033.597567521384917
99040.712282191656413
99048.520445809423109
99055.338997248196392
99059.76137022007606
99060.904976262914715
99058.481391431821976
99052.852422642026795
99060.99319148727227
99057.6733766655816
99034.326414718045271
99003.103249816573225
98981.139771913454751
98979.492000998347066
98996.727049794732011
99021.004557175736409
99038.038400710298447
99039.973297821852611
99028.718817502420279
99013.101443536579609
99002.416974863954238
99000.61932366421388
99004.999285739701008
99009.439060365330079
99008.737271407502703
99001.648620172505616
98990.088794109833543
98977.062940703064669
98964.321372748046997
98951.761170502591995
98938.382165852774051
98923.529304536088603
98907.720834303705487
99025.019186303718016
99015.458630217588507
99011.399564340055804
99012.668367289166781
99018.166126909651211
99026.157778291060822
99034.633366629321245
99041.709087441733573
99045.925631545629585
99046.544908744239365
99043.500984105776297
99037.465561123259249
99064.975286270055221
99040.090364232382854
99007.292155425588135
98982.612816103370278
98976.791873335925629
98989.399680631657247
99009.860675025527598
99024.884834972210228
99026.753551608577254
99016.99493842771335
99003.769001259192009
98995.157888825851842
98993.788341217164998
98996.069513203401584
98995.800860850635218
98989.125950120753259
98976.520682523594587
98961.535760542814387
98947.812438975233817
98936.391495743009727
98925.538109304805403
98912.871805731920176
98897.376900638948428
98880.156839286559261
99043.863641044605174
99011.831699506597943
98985.962819437700091
98975.977958544695866
98982.665749559513642
98997.720768626648351
99009.898544798532384
99012.278517473168904
99005.735153947374783
98996.553134520887397
98990.662546547464444
98989.336154672128032
98988.711793097725604
98983.562598584001535
98971.656210110726533
98955.008954598131822
98938.210336806048872
98924.665259873509058
98914.624601154704578
98905.550324760653893
98894.177071731392061
98879.265001425417722
98862.530049716719077
98989.496562991000246
98976.379120212499402
98977.692980596300913
98987.780674105975777
98997.758980701808468
99001.329548972993507
98998.279103785680491
98992.706790540294605
98988.445485982330865
98985.617554088530596
98980.70183414206258
98970.39190289171529
98954.272624916222412
98935.642304136010353
98918.982036923116539
98907.126459345789044
98899.359933503495995
98892.246905763895484
98882.57996763457777
98869.523956642922712
98854.887098121238523
98991.066064598155208
98996.081864868159755
98995.882594579205033
98992.374903808304225
98987.620853905682452
98981.167623825123883
98970.937275206815684
98955.558425337381777
98936.508108195310342
98917.668313552741893
98903.064941179851303
98894.303549817530438
98889.403277026227443
98884.833579133846797
98877.737405062565813
98867.592186561771086
98856.225982240575831
98987.174689676772687
98975.638475678177201
98959.58048926704214
98939.66474897848093
98918.835467161843553
98901.268341299321037
98890.014097491875873
98885.090271695458796
98883.67915095508215
98882.206183670801693
98878.378715247992659
98872.059320671382011
98864.651379198796349
98969.346703791787149
98947.875076461641584
98924.393984553666087
98902.914621684816666
98887.387659846805036
98879.71539528768335
98878.651372882290161
98880.830012712773168
98882.845039591295063
98882.888080281350994
98880.915075328797684
98877.629097639844986
98905.988516496814555
98908.251582980214152
98910.292515902750893
98906.33927228867833
98896.134032395420945
98883.532086260383949
98874.154790752843837
98872.260654129160685
98878.875320159364492
98892.8377897383034
98910.930223866613233
98928.021844962029718
98939.146897774393437
98941.382462811932783
98935.798736861310317
98927.445357922857511
98923.012659867788898
98926.410615589280496
98937.107799541787244
98951.090802873455686
98907.62453238555463
98907.034940515717608
98912.476456241638516
98915.82694575136702
98910.281881987408269
98896.345420022829785
98879.406894034502329
98866.318338839861099
98861.935451666300651
98868.090950807847548
98883.311319299042225
98903.510096215279191
98922.492884142775438
98934.361287785621244
98936.257973353145644
98930.203143887265469
98922.370245257872739
98919.87801489487174
98925.992213410732802
98938.98729059867037
98953.910239195320173
98965.90976644163311
98922.483668207773007
98911.63767407751584
98905.751298422022955
98908.717316993759596
98917.30539684688847
98921.807603534980444
98914.968790846251068
98897.362428742795601
98876.156481091224123
98859.279784228696371
98852.613387959092506
98858.300547453807667
98874.694478140110732
98896.951723945501726
98917.82829310928355
98930.34555181581527
98931.722192949833698
98925.058357116577099
98917.858632944262354
98917.32763152635016
98926.130961429385934
98941.247499323959346
98956.817598940688185
98968.193477808512398
98974.059809728583787
98975.855436550977174
98929.094487503898563
98917.688940709937015
98907.642705837221001
98904.153999582893448
98910.550220606164658
98922.070379040917032
98927.81820031737152
98919.817905931180576
98899.100118135582306
98873.733939711775747
98853.344425234681694
98844.492596916563343
98849.59441991255153
98867.100855304743163
98891.442411314244964
98914.053462765077711
98927.076679556179442
98927.740151578575023
98920.457542816744535
98913.851045132279978
98915.294622544301092
98926.654426031091134
98943.696661753841909
98959.787022182630608
98970.41058844611689
98975.337088463114924
98976.939280108344974
98977.17350911552785
98939.755397554705269
98925.644522909758962
98913.457729415633366
98904.120133565113065
98902.938287752520409
98912.492575347816455
98926.903412497456884
98933.829920615535229
98924.65778753333143
98900.851551441388438
98871.856038315367186
98848.306519350036979
98837.39353974405094
98842.034046729211695
98860.688635944388807
98887.005617368398816
98911.18463544586848
98924.58851015806431
98924.485862821718911
98916.44837760431983
98910.233042098814622
98913.478096674312837
98927.199683902203105
98946.010802097036503
98962.510033192520496
98972.373307269648649
98976.300381078326609
98977.701531957223779
98979.002174033084884
98978.520984069822589
98960.132498237668187
98937.878469911040156
98922.675326500451774
98910.049110036925413
98901.10452244564658
98901.763731750979787
98914.000178875852725
98931.008911761426134
98939.273428914588294
98929.227429026053869
98902.840096427506069
98870.615049480853486
98844.260991596471285
98831.575367046069005
98835.780263701672084
98855.540348474489292
98883.627386377629591
98909.301674436836038
98922.953944060674985
98921.990315424074652
98913.11833139717055
98907.175671423712629
98911.955939481340465
98927.77135861676652
98948.16053031742922
98964.996652659334359
98974.11589563144662
98977.033728981492459
98978.286314610697445
98980.510816689260537
98981.487862182955723
98975.80814840158564
98959.20782170718303
98936.238111150887562
98920.389543477926054
98907.312742553083808
98898.742037781295949
98900.82507683847507
98915.78103553460096
98934.925661733883317
98944.044790539017413
98933.357286739090341
98904.648512218293035
98869.665676007964066
98841.007646318656043
98826.927041795177502
98830.854894168267492
98851.554528285807464
98881.261947294304264
98908.205442484511877
98921.984899586095707
98920.198931525213993
98910.472645563902915
98904.684794699933263
98910.685991832142463
98928.231290141236968
98949.929681180015905
98967.014568864891771
98975.452365314704366
98977.539213116047904
98978.634261038707336
98981.618809849707759
98983.935599715507124
98979.176634718009154
98962.163380530342693
99226.590445371053647
99207.157673999885446
99169.599351567972917
99116.048148167887121
99074.581684964403394
99069.012801292017684
98958.440733719937271
98935.148082655345206
98918.822154587105615
98905.353106403519632
98896.93413465404592
98900.064876314499998
98916.775759381198441
98937.756942317922949
98947.628948773519369
98936.327975188498385
98906.092417685285909
98869.140339699224569
98838.763587268156698
98823.613273773691617
98827.42768686452473
98848.72827757561754
98879.752705152277485
98907.637384231289616
98921.459144008491421
98919.041533944007824
98908.637132195042796
98902.886693082065904
98909.78850358328782
98928.637671260818024
98951.340971813944634
98968.576178540548426
98976.46249096779502
98977.904442489380017
98978.827972318555112
98982.450333081011195
98985.84725233555946
98981.770107353338972
98964.430509306679596
98934.851108191694948
99240.03140792834165
99226.364909569383599
99208.395687471187557
99170.504761914169649
99114.928604034837917
99071.851493885173113
99066.499903153569903
98957.892649976653047
98934.532714507935452
98918.011859936552355
98904.309715501571191
98895.97627513500629
98899.66940680576954
98917.549707626603777
98939.687250954593765
98949.843907017348101
98937.972039052503533
98906.957817718735896
98868.905912319081835
98837.537100831686985
98821.841214664469589
98825.647567666746909
98847.334093410521746
98879.133710859154235
98907.560938412498217
98921.298225730177364
98918.495480811398011
98907.664602790478966
98901.917850059413468
98909.288523296403582
98928.845275120504084
98952.121458578229067
98969.431587634942844
98976.993959908169927
98978.043387202793383
98978.884298884426244
98982.886819634775748
98986.914074496322428
98983.135145954758627
98965.649143318485585
98935.270624173310352
98900.673571381688816
98709.61798070196528
98724.256065597335692
98737.062942846197984
98747.515578496168018
98755.499724616180174
98761.355156975841965
98765.67851291441184
98769.357538401978672
98773.297775157814613
98778.196406873728847
98784.368762012745719
99119.354952303372556
99084.964319132064702
99041.732829881540965
99003.10287830143352
98985.060612991670496
98996.530663309866213
99032.953097195349983
99077.483176317342441
99110.778060785189155
99122.715832594200037
99116.233690972701879
99102.346817163313972
99091.012498063442763
99084.820052001043223
99079.55288505453791
99070.376931259117555
99057.408669446886051
99046.268763011859846
99043.932118799406453
99053.277847795368871
99070.918517768324818
99089.877609947085148
99104.147849196451716
99111.948753619843046
99115.565796028808109
99118.624365902200225
99123.274168556163204
99129.154544902878115
99134.451364351742086
99138.187852054266841
99141.749286631864379
99148.041887917614076
99158.874733176940936
99172.605350553480093
99184.02377218309266
99187.023112496244721
98642.597166171384742
98635.019682286394527
98631.181145325608668
98631.303108307591174
98635.408174040712765
98643.234465915025794
98654.247918541615945
98667.730982135355589
98682.803566182512441
98698.519274808539194
98713.86545548083086
98727.804494308307767
98739.574869229691103
98748.841437499970198
98755.705061440428835
98760.756495413021185
98764.902865346623003
98769.134439712623134
98774.213691665310762
98780.713494491414167
98788.683780330087757
99105.218792546365876
99063.8255708872166
99015.696339411864756
98975.704713072482264
98959.970842845083098
98976.511563554857275
99019.264963339592214
99069.852285715081962
99107.914710965560516
99122.566298280726187
99117.13218952450552
99103.212879118873389
99091.33281640354835
99084.918661276751664
99080.524608763342258
99073.411876085941913
99063.28916146865231
99055.105126217080397
99055.129409615488839
99066.327899090509163
99086.200685636038543
99108.530773777558352
99127.734773223593947
99141.718348983311444
99151.608877572303754
99159.382929705359857
99165.631711714493576
99169.233721078067902
99169.018762982683256
99165.945695135204005
99163.568581196537707
99166.127250070450827
99175.388431956220302
99188.518003692064667
99198.809520176408114
99199.365512862277683
98663.910873560467735
98654.634689224767499
98649.061291113248444
98647.631050159980077
98650.437419526293525
98657.253834063551039
98667.464606897672638
98680.115516470876173
98694.083068350737449
98708.25275314458122
98721.697811215184629
98733.714230747980764
98743.857890711500659
98752.061438623190043
98758.643765726737911
98764.228353627942852
98769.612926470043021
98775.635352263212553
98782.81305646673718
98791.462413217581343
98801.35293446360447
99044.628681041664095
98997.358348353402107
98961.200252450769767
98949.715654956366052
98969.039749289644533
99012.536839803578914
99063.380933650201769
99102.688531027364661
99119.831480203094543
99116.471186768525513
99102.96233088063309
99089.862271255537053
99081.423731258473708
99076.149375624299864
99070.36325869281427
99064.072043315711198
99061.038985248815152
99065.92909948254237
99080.586110455406015
99102.530038927885471
99126.902797422313597
99149.443353965572896
99168.440799135220004
99184.142608955997275
99196.647165007438161
99204.597956665660604
99205.977734625848825
99200.325614727829816
99190.416061993513722
99181.810734452374163
99179.917666173438192
99186.453666945250006
99197.799340110723278
99206.428263634312316
98679.613477224629605
98673.843677500175545
98672.027592503480264
98674.248448354759603
98680.11986560227524
98688.918932809814578
98699.676591744748293
98711.314163683695369
98722.821827831852715
98733.453327966184588
98742.85413283125672
98751.052765997272218
98758.360848102034652
98765.288477095629787
98772.424693917666445
98780.293123560069944
98789.293810344141093
98799.46606346333283
98810.737405521140317
98822.548892723789322
99027.374372062433395
98988.363071153624333
98962.978951145807514
98959.320350998765207
98979.35115524714638
99017.25756904768059
99060.773197789676487
99096.059537505469052
99113.79806324809033
99113.381332068063784
99101.387160161990323
99086.242291079644929
99073.716699127733591
99065.431841587924282
99061.307175153691787
99060.913096787990071
99065.79922056896612
99077.732438359089429
99096.39718727984291
99119.20732286873681
99142.947009632014669
99165.64075386110926
99186.870596225460758
99206.309766031932668
99222.420439407287631
99232.077720536530251
99232.424288271839032
99223.298475561692612
99208.694648985590902
99195.488294435548596
99189.658164688720717
99192.833811017510016
99201.052768262976315
99206.783395468082745
98711.100030212779529
98706.672031617170433
98705.41586537049443
98707.297736196545884
98711.876434591438738
98718.437967398407636
98726.176254413163406
98734.347503255863558
98742.374661256981199
98749.919948608832783
98756.943836523540085
98763.704016114701517
98770.67963472964766
98778.438626455288613
98787.470679338512127
98798.029934502628748
98810.098144299161504
98823.234669517245493
98836.960336368356366
98850.40414565402898
98991.576185515063116
98984.277092143442133
98990.20009575408767
99007.853702600230463
99033.924663339043036
99063.017305680317804
99088.348596007504966
99103.812980551752844
99106.198879737276002
99096.783744033979019
99080.751950825782842
99064.781375610342366
99054.254110801019124
99052.140349860885181
99058.871018119592918
99072.899900150543544
99091.808998307562433
99112.727511431236053
99133.269345691878698
99152.486974857136374
99171.193616589618614
99190.735560374625493
99210.855767875676975
99229.058692207530839
99240.802996637983597
99242.443228207965149
99233.850453875711537
99219.116203584926552
99204.976262687545386
99196.878794015181484
99196.071472533512861
99199.03863678725611
98747.19629338150844
98746.69336359949375
98748.254795831919182
98751.365098231544835
98755.425897273889859
98759.930312267359113
98764.566188851516927
98769.240757103776559
98774.059554993538768
98779.276617187075317
98785.249970311007928
98792.386466435156763
98801.078318144878722
98811.58368554028857