/*--------------------------------*- C++ -*----------------------------------*\
  =========                 |
  \\      /  F ield         | OpenFOAM: The Open Source CFD Toolbox
   \\    /   O peration     | Website:  https://openfoam.org
    \\  /    A nd           | Version:  12
     \\/     M anipulation  |
\*---------------------------------------------------------------------------*/
FoamFile
{
    format      ascii;
    class       volScalarField;
    location    "0.0059";
    object      pMean;
}
// * * * * * * * * * * * * * * * * * * * * * * * * * * * * * * * * * * * * * //

dimensions      [1 -1 -2 0 0 0 0];

internalField   nonuniform List<scalar> 
106891
(
98706.686492333639762
98707.39087318701786
98708.127419901531539
98708.897813409188529
98709.703871974779759
98710.547446574681089
98711.430138360432466
98712.35368102544453
98713.317714275995968
98714.322677676274907
98715.357864455640083
98703.62803083792096
98703.542096104210941
98703.444958370586392
98703.341883848625002
98703.239755739909015
98703.143254800903378
98703.052630683218013
98702.963739829210681
98702.870254959983868
98702.766969103351585
98702.652167236199602
98702.528118469010224
98702.399249447727925
98702.270148940078798
98702.144386936561204
98702.023449733460438
98701.906588822283084
98701.791407185533899
98701.674850571056595
98701.55408530337445
98701.427060210175114
98701.292839618719881
98701.152038422456826
98701.007182128974819
98700.862536735163303
98700.72321832482703
98700.593907408445375
98700.477362517121946
98700.373198384651914
98700.27743681492575
98700.183904408608214
98700.086576817222522
98699.981581910236855
98699.868388115617563
98699.7494997176982
98699.628812208276941
98699.509939378185663
98699.395216860022629
98704.997927891818108
98705.4983753618435
98706.026963764248649
98706.583705288678175
98707.168403584233602
98707.780766437732382
98708.420570164205856
98709.087813141697552
98709.782769090626971
98710.506070661067497
98711.258758012307226
98712.042252788640326
98712.858172031497816
98713.708223828129121
98714.594069979386404
98715.51705195014074
98716.478593523410382
98717.47811618023843
98718.515968250081642
98719.581955403191387
98703.564436676213518
98703.466728197352495
98703.36222774212365
98703.258371456773602
98703.160232207344961
98703.068256029029726
98702.978346289513865
98702.884082516058697
98702.780095411057118
98702.664656840715907
98702.53989645090769
98702.409902372877696
98702.278670683663222
98702.149269145447761
98702.023166534534539
98701.899850035726558
98701.77758225024445
98701.654194873044617
98701.52742864593165
98701.395632102692616
98701.258039607564569
98701.115205592650454
98700.969568190063001
98700.824957595104934
98700.685901111603016
98700.556805367858033
98700.440862649134942
98700.338449816976208
98700.246369007989415
98700.158729772650986
98700.068903481296729
98699.971725188137498
98699.864998702498269
98699.74965290313412
98699.628808498309809
98699.506220928335097
98708.37795637655654
98708.929658145512803
98709.508737188618397
98710.115298468444962
98710.74927959748311
98711.410477610639646
98712.098632627006737
98712.813617554376833
98713.555597202677745
98714.325091404694831
98715.122970451338915
98715.950443280496984
98716.808921684787492
98717.699887903727358
98718.624759934056783
98719.584615461484645
98720.580599316483131
98721.611977235908853
98722.679000801828806
98723.771919729886577
98703.564415125700179
98703.469334045410505
98703.36584525417129
98703.26137430628296
98703.160928982266341
98703.065238762079389
98702.97081262638676
98702.872371628051042
98702.765485013413127
98702.64867438658257
98702.52389859809773
98702.394728870727704
98702.264247285333113
98702.134377885522554
98702.005902137534576
98701.878458772960585
98701.75101343926508
98701.622255217807833
98701.490684923599474
98701.35511548773502
98701.215231582566048
98701.07191099600459
98700.927159215789288
98700.784151433239458
98700.646754997345852
98700.518978660838911
98700.403993929256103
98700.30299087955791
98700.214037050231127
98700.132045006801491
98700.05022951864521
98699.962291223666398
98699.864401774626458
98699.755905718484428
98699.638616033596918
98699.515774176208652
98712.381917191873072
98713.0070771441533
98713.659295184101211
98714.338555751470267
98715.044673897325993
98715.777387252979679
98716.536480488080997
98717.321949582517846
98718.134155631196336
98718.973856836353661
98719.842115723484312
98720.740128140430897
98721.669039374333806
98722.629892405355349
98723.623421810319996
98724.650459347772994
98725.710085767219425
98726.802422318753088
98727.918159879554878
98703.443136614339892
98703.343324300047243
98703.239442293066531
98703.135894469625782
98703.033690335534629
98702.930818696229835
98702.82407505834999
98702.711215417904896
98702.592235860414803
98702.469104195421096
98702.344131499863579
98702.218520790804178
98702.092303565310431
98701.964992673005327
98701.836321784561733
98701.706341767421691
98701.574866328111966
98701.441314729454461
98701.304978387648589
98701.165427948712022
98701.023169715539552
98700.880025534628658
98700.739015192826628
98700.603592404542724
98700.47714294490288
98700.362784235330764
98700.262376220853184
98700.175106876980863
98700.097102892395924
98700.02225191614707
98699.943863481355947
98699.856583531334763
98699.757739631400909
98699.647395578751457
98715.198801074846415
98715.839710856336751
98716.507136438027374
98717.201471268912428
98717.922714950807858
98718.670554904150777
98719.444525923943729
98720.244220901717199
98721.06952883512713
98721.920730491503491
98722.798469460569322
98723.703639650600962
98724.637267691025045
98725.60031466318469
98726.593589433003217
98727.617515395919327
98728.672539072766085
98729.757490410440369
98730.872283347547636
98732.007997992739547
98703.383133416049532
98703.288527272379724
98703.186286675816518
98703.079898227588274
98702.970725647610379
98702.85845398051606
98702.742376737325685
98702.622845699137542
98702.501554747781483
98702.38037281378638
98702.26003857870819
98702.139860556169879
98702.018294613255421
98701.894081498889136
98701.767180892231409
98701.638598441291833
98701.509200142143527
98701.378672260092571
98701.245913674953044
98701.109948023076868
98700.971081139694434
98700.831647289523971
98700.695122470817296
98700.564427389923367
98700.441626530766371
98700.328532358034863
98700.226802085642703
98700.137149207337643
98700.05818910394737
98699.985877568440628
98699.91416051251872
98699.83661046178895
98699.748101243021665
98719.289572968118591
98719.996489063269109
98720.730180446029408
98721.490579322882695
98722.277221188007388
98723.089467791069183
98723.926768099205219
98724.788824383125757
98725.675667422998231
98726.587684287180309
98727.525569311634172
98728.49023567752738
98729.482591736654285
98730.503439012085437
98731.553118825569982
98732.631872364552692
98733.73839989733824
98734.872455948920106
98736.025615527061746
98703.180633021314861
98703.08219417752116
98702.975085855898215
98702.860696772491792
98702.740896484727273
98702.618275103857741
98702.495576014451217
98702.375013766853954
98702.257441283218213
98702.141913717889111
98702.026371019193903
98701.909034188312944
98701.789402016627719
98701.668430652673123
98701.547634030008339
98701.427291133266408
98701.305586904214579
98701.179933190738666
98701.049313698415062
98700.915241769631393
98700.781164415791864
98700.650601622488466
98700.52550501243968
98700.406252470333129
98700.293060705822427
98700.187291272784933
98700.091227760436595
98700.006521887902636
98699.932122599158902
98699.862931751718861
98699.791549737885362
98699.711209943605354
98722.711854830355151
98723.456426688586362
98724.227265150722815
98725.024261711558211
98725.846841324688285
98726.694198891302221
98727.565536283378606
98728.460331630383735
98729.378525773325237
98730.320555107362452
98731.287119153552339
98732.27898899934371
98733.296855990527547
98734.341278991647414
98735.412478195488802
98736.510735008487245
98737.634894555449137
98738.78465145851078
98739.952131606201874
98702.930653718067333
98702.825900698779151
98702.710789621778531
98702.589135015456122
98702.465589265018934
98702.343858913634904
98702.225696269451873
98702.110935974866152
98701.99801209520956
98701.885251757368678
98701.772036581329303
98701.658972170349443
98701.547504552727332
98701.438587040058337
98701.331041728699347
98701.221577604897902
98701.106585867586546
98700.984579579366255
98700.857249017382856
98700.728714024779038
98700.603060145062045
98700.481972503999714
98700.364633447592496
98700.249997468752554
98700.138970749554574
98700.034925803745864
98699.941678928371402
98699.860434003523551
98699.787979302927852
98699.717376210901421
98726.873015668985317
98727.679419557156507
98728.510717287979787
98729.366212031105533
98730.245025311727659
98731.146375463635195
98732.069793774542632
98733.015202947659418
98733.982945781230228
98734.973662789678201
98735.988171205928666
98737.027134374293382
98738.091045991852297
98739.179953860293608
98740.293919079223997
98741.431691341291298
98742.592989966957248
98743.770836587180384
98702.624519041826716
98702.515311142691644
98702.398697702694335
98702.27988885405648
98702.16291308181826
98702.049213717706152
98701.937866632986697
98701.82719689689111
98701.716462382304599
98701.606646868152893
98701.500102450008853
98701.399000947130844
98701.303504787138081
98701.210825396119617
98701.115801724532503
98701.013351408881135
98700.901357363924035
98700.781660416876548
98700.658644862254732
98700.536387434200151
98700.416461180051556
98700.298227934414172
98700.180888654416776
98700.065667138740537
98699.955959569662809
98699.855735523306066
98699.766809460066725
98699.687262642095448
98730.222396367084002
98731.061768320403644
98731.923742486556876
98732.807848644864862
98733.713587721576914
98734.640550731724943
98735.588552929883008
98736.557653301133541
98737.548137732999749
98738.560400693284464
98739.594907618142315
98740.652066662267316
98741.732257424038835
98742.835454335887334
98743.961720057704952
98745.109877539071022
98746.279585815835162
98747.464491862949217
98702.295186567629571
98702.188287883705925
98702.07765183376614
98701.967180951483897
98701.859039551098249
98701.752921033286839
98701.647305088059511
98701.541418031134526
98701.436676130339038
98701.335888280460495
98701.24120605988719
98701.15236296011426
98701.066044728373527
98700.977235938873491
98700.881468263076385
98700.776678678754251
98700.663752069012844
98700.545632427907549
98700.425538913652417
98700.305592316493858
98700.186854086874519
98700.070260989188682
98699.957123803062132
98699.84917603978829
98699.748107007719227
98699.654639027547091
98699.567682707696804
98734.360185908793937
98735.249893648608122
98736.159479435897083
98737.088644340241444
98738.037320159972296
98739.005697407439584
98739.994104213968967
98741.002938613019069
98742.032522533132578
98743.083121962670702
98744.154805979924276
98745.247648805874633
98746.361458772793412
98747.49629371840274
98748.65116133839183
98749.825932849460514
98751.015361771045718
98702.137726415050565
98702.047430583930691
98701.950261104851961
98701.847548288511462
98701.742469040662399
98701.638476735868608
98701.537183384687523
98701.438022223883308
98701.339563735207776
98701.2410850055021
98701.143380004286882
98701.048288460020558
98700.957061172244721
98700.868789996806299
98700.780786789298872
98700.689686038691434
98700.592643906071316
98700.488238801859552
98700.376758017810062
98700.260206347171334
98700.141700749867596
98700.024652227963088
98699.911802369722864
98699.804645274169161
98699.7032708638435
98699.60661647625966
98699.513270069030114
98738.448857321302057
98739.380187785165617
98740.330230263309204
98741.299218757223571
98742.287325243611122
98743.294635423357249
98744.32118742451712
98745.366956877172925
98746.43194194183161
98747.51606158517825
98748.619306115986547
98749.741406193832518
98750.882396410015645
98752.041428621334489
98753.218467967148172
98754.409267489405465
98701.917875926417764
98701.831428607183625
98701.737189561812556
98701.635266746437992
98701.529824048600858
98701.426696710608667
98701.329605214981711
98701.237854269827949
98701.147735469974577
98701.055180834446219
98700.958243107990711
98700.858183450720389
98700.758090703893686
98700.66073833941482
98700.566848079382908
98700.47473459932371
98700.381086134948418
98700.282688245817553
98700.17786784452619
98700.067411995536531
98699.954189713011147
98699.841929178699502
98699.734217321529286
98699.633173437017831
98699.538647486740956
98699.448871998814866
98699.361552865710109
98699.275015475897817
98742.013051532790996
98742.977834825360333
98743.961876955145271
98744.965250880064559
98745.987717065348988
98747.028859914120403
98748.088144111956353
98749.165070815914078
98750.259160309025901
98751.370152084971778
98752.497781530808425
98753.642293364988291
98754.803245876537403
98755.980921509049949
98757.172174931532936
98701.643718855906627
98701.549071269007982
98701.445099825767102
98701.336689122501411
98701.231572675402276
98701.135338369465899
98701.047836227648077
98700.963688566058408
98700.875818913817056
98700.779847119061742
98700.676340283156605
98700.569882207928458
98700.465852158784401
98700.367279035272077
98700.273535430635093
98700.181229534253362
98700.086341034417273
98699.986472856180626
98699.881829023521277
98699.775070087751374
98699.669558788402355
98699.568146035846439
98699.472535627253819
98699.382806351277395
98699.297684537959867
98699.215219912061002
98699.13409509792109
98745.051202563263359
98746.04660269949818
98747.061710805181065
98748.095998593358672
98749.148602325120009
98750.218459262512624
98751.304621978502837
98752.406304691874539
98753.523141313984524
98754.654907435178757
98755.801933428869233
98756.964100100289215
98758.141961955989245
98759.333113828804926
98701.367934230933315
98701.260267256424413
98701.148519073889474
98701.041616082351538
98700.945875698322197
98700.860986636020243
98700.780222733374103
98700.694843913821387
98700.599293896128074
98700.493946230169968
98700.38412270162371
98700.276443555863807
98700.175148218448157
98700.080076121288585
98699.987710992514621
98699.894017600701773
98699.796900237648515
98699.696789571724366
98699.595991355759907
98699.497313453903189
98699.402760010940256
98699.313011779770022
98699.227855182325584
98699.146542984744883
98699.068340525205713
98698.992904508399079
98747.903445584423025
98748.928852813391131
98749.973365282567102
98751.035739903585636
98752.114551827544346
98753.208531968746684
98754.316666831087787
98755.438483434496447
98756.573800006182864
98757.723119603251689
98758.88659767327772
98760.064943826204399
98761.256273635503021
98701.076992443093332
98700.961975652448018
98700.852290686205379
98700.754779944152688
98700.669477435745648
98700.589489449746907
98700.505406595795648
98700.411047013752977
98700.306550571185653
98700.197257696767338
98700.089910794529715
98699.988670436199754
98699.893211391026853
98699.800045016701915
98699.705882766560535
98699.609553411122761
98699.512238954979694
98699.416445356837357
98699.324360415397678
98699.236748016861384
98699.152986249609967
98699.072345402702922
98698.994720112619689
98698.920614294911502
98698.850670174491825
98750.59531270278967
98751.648657372614252
98752.719219036152936
98753.805298220409895
98754.905457587607088
98756.01862827547302
98757.144373603558051
98758.282644391030772
98759.434052351891296
98760.598929329251405
98761.778069429128664
98762.969949349455419
98700.784191696759081
98700.672187777832733
98700.572610837814864
98700.485855419770814
98700.405703258453286
98700.323021063028136
98700.231288014882011
98700.130107356249937
98700.02408052123792
98699.919137685923488
98699.818870835166308
98699.722954256751109
98699.628485255612759
98699.533070850520744
98699.436791145111783
98699.341698873831774
98699.25030813657213
98699.164065479184501
98699.082725392829161
98699.004779578535818
98698.928980476513971
98698.855372676902334
98698.785176147619495
98698.71969041437842
98700.498784540497581
98700.397736297119991
98700.309042715161922
98700.227639497694327
98700.145653605941334
98700.056950094614876
98699.960268745067879
98699.858573614619672
98699.756487521488452
98699.657009041577112
98699.560235995042603
98699.464318919417565
98699.368188243155601
98699.273003668058664
98699.18139304642682
98699.095433001086349
98699.01554656906228
98698.940410500188591
98698.867955913490732
98698.796624058755697
98698.726589389159926
98698.659538064064691
98698.597149056789931
98700.14999786367116
98700.067234871443361
98699.98558699512796
98699.89929707441479
98699.806400922840112
98699.708670179257751
98699.609471469244454
98699.511108765174868
98699.413930747788982
98699.317260836338392
98699.221471639844822
98699.128571955283405
98699.041090948187048
98698.960466106713284
98698.886081707110861
98698.815972807642538
98698.747750986192841
98698.679963858623523
98698.613063589815283
98698.548715620636358
98698.488363167707575
98699.664305074053118
98699.56891786622873
98699.47089396964293
98699.372407947099418
98699.274473122117342
98699.177836262868368
98699.083919599448564
98698.994908880937146
98698.9128716114501
98698.838296326575801
98698.769675616931636
98698.704264328494901
98698.63968202212709
98698.574831499237916
98698.510268779384205
98698.447528703429271
98698.387834238441428
98699.149592382571427
98699.054327318546711
98698.963720607585856
98698.879993802678655
98698.804325512406649
98698.735926441164338
98698.672312741240603
98698.610557503954624
98698.548597779823467
98698.48579987604171
98698.422668091079686
98698.360461584132281
98698.300177377095679
98698.938942215812858
98698.852623647704604
98698.774600584059954
98698.705061551765539
98698.642273705394473
98698.583359698663116
98698.525246914403397
98698.466011184180388
98698.405154434221913
98698.343147650346509
98698.280882298437064
98698.2190653810394
98711.905287021872937
98711.700723229136202
98711.48740498778352
98711.268665025767405
98711.049965653801337
98710.835945628510672
98710.628418023436097
98710.426049425761448
98710.225431009035674
98710.022376105218427
98709.81348624486418
98709.597542208808591
98709.375858832063386
98709.151691719162045
98708.929360006732168
98708.712106206148746
98708.499949398261379
98708.289682853152044
98708.077434985752916
98707.860751596759656
98712.102037509932416
98711.904466074774973
98711.696400245622499
98711.477996005560271
98711.253915854424122
98711.031025923846755
98710.814534933291725
98710.606310476330691
98710.404630159988301
98710.205287936507375
98710.003439463776886
98709.795108947728295
98709.579012789705303
98709.356865921334247
98709.132754783087876
98708.911372143018525
98708.695671219553333
98708.484875392285176
98708.275065765614272
98708.062175095750717
98707.844299659249373
98707.62187823781278
98712.479495770283393
98712.296119382430334
98712.106473911990179
98711.907319515827112
98711.69565472411341
98711.47233744962432
98711.243136084653088
98711.016074423241662
98710.797302047823905
98710.588617516987142
98710.38772884568607
98710.189865415042732
98709.989321682296577
98709.781644714632421
98709.565489045780851
98709.343081466489821
98709.119160618414753
98708.898849835328292
98708.684863680377021
98708.475712370825931
98708.266725402965676
98708.053528977543465
98707.83457522635581
98707.61099400454259
98707.385229969106149
98707.159868124508648
98712.656249876730726
98712.479198167595314
98712.296552071158658
98712.106958044430939
98711.906571988249198
98711.692222983241663
98711.464895046839956
98711.23122322926065
98711.00060289024259
98710.779878981978982
98710.570820762499352
98710.370842234318843
98710.174519812077051
98709.975339396652998
98709.768295158661203
98709.551961057281005
98709.329179421503795
98709.105298493042937
98708.885749132794444
98708.672989443002734
98708.464779763657134
98708.255928684695391
98708.042052542979945
98707.821949715842493
98707.59728594221815
98707.370929125740076
98707.145231868635165
98706.921211443623179
98712.826379441758036
98712.655850960261887
98712.480518007214414
98712.299436537592555
98712.110384789848467
98711.909105005106539
98711.691944478603546
98711.460581415973138
98711.222879095395911
98710.989241717979894
98710.767057049117284
98710.557929086964577
98710.358924426036538
98710.164092871695175
98709.966141728596995
98709.759617289149901
98709.543208730363403
98709.319970595504856
98709.095982461658423
98708.87726135502453
98708.66594597385847
98708.459103625398711
98708.250777587410994
98708.036477990273852
98707.815488469321281
98707.590033168540685
98707.363240718172165
98707.137300009111641
98706.912631184706697
98706.689249459013809
98712.991531767955166
98712.823168440721929
98712.653307292581303
98712.478659571235767
98712.298394179946627
98712.109877497307025
98711.907831452030223
98711.688805554193095
98711.454640991883934
98711.213797397038434
98710.977709526880062
98710.754238470282871
98710.545077737711836
98710.346984950592741
98710.153447493852582
98709.956624730461044
98709.75048488615721
98709.533777533797547
98709.310234764576307
98709.086316098866519
98708.868216918141115
98708.657941050638328
98708.451943594933255
98708.243779550204636
98708.028869771151221
98707.806862713710871
98707.580474525515456
98707.353126044181408
98707.127035777142737
98706.902094064163975
98706.677705659181811
98706.456055385890068
98712.992622525955085
98712.824920836865203
98712.655912782371161
98712.482381619032822
98712.303196107095573
98712.115238693600986
98711.912773453033878
98711.69199866168492
98711.455297372536734
98711.211759430152597
98710.973576801785384
98710.749177758654696
98710.540122762191459
98710.342863695783308
98710.150569757766789
98709.954793144497671
98709.749116719598533
98709.532162263349164
98709.307943704538047
98709.083659952215385
98708.866105093504302
98708.656995620651287
98708.452040171556291
98708.24424711856409
98708.028976685498492
98707.806236646414618
98707.579173376419931
98707.351492969522951
98707.125284660927719
98706.899945874742116
98706.674533797733602
98706.451246659635217
98706.235120045384974
98725.274376330344239
98724.960471159851295
98724.658422291337047
98724.377995903298142
98724.121202110836748
98723.874727710935986
98712.990986609162064
98712.823578858253313
98712.65496465144679
98712.481898198835552
98712.30340366467135
98712.115953095155419
98711.913322101157974
98711.691586505563464
98711.453136035837815
98711.207653615827439
98710.968035755882738
98710.74296337661508
98710.533966131391935
98710.337367391868611
98710.146025177673437
98709.950967191281961
98709.745443400010117
98709.528234258425073
98709.303685344653786
98709.079305758175906
98708.862136717201793
98708.653737660730258
98708.449363235151395
98708.241627117546159
98708.025926197340596
98707.802555425674655
98707.574953889648896
98707.346976566317608
98707.120729423244484
98706.895252755901311
98706.669214938374353
98706.444884814525722
98706.227525389884249
98706.023112696871976
98725.596016348543344
98725.276037878240459
98724.961900939742918
98724.659131520558731
98724.378560907993233
98724.122699105690117
98723.877416244024062
98712.996753202038235
98712.829793833589065
98712.661542250338243
98712.488795336408657
98712.31075910871732
98712.123554607984261
98711.920845523272874
98711.698508926914656
98711.459009204918402
98711.212496925494634
98710.972224642595393
98710.746859691367717
98710.5380006628111
98710.341914120785077
98710.151137753287912
98709.956474087317474
98709.751092514983611
98709.533733061209205
98709.308840669109486
98709.084259671537438
98708.867300824073027
98708.65935509945848
98708.455362777473056
98708.247733917160076
98708.031907395314192
98707.808296281364164
98707.580422279454069
98707.352333152099163
98707.126122141111409
98706.900539963025949
98706.6741115723853
98706.449238288245397
98706.231180486327503
98706.026203324014205
98705.838819816650357
98707.378905703037162
98708.074285486669396
98708.803032128489576
98709.566860986247775
98710.367579345765989
98711.206913955305936
98712.086182851693593
98713.006676498378511
98713.967505747496034
98714.968606259237276
98715.998469066544203
98704.466973779068212
98704.385221239848761
98704.311844377836678
98704.248359836929012
98704.189357858456788
98704.12346888781758
98704.038432029512478
98703.927248715917813
98703.791826048036455
98703.641347847864381
98703.486601536802482
98703.334238163486589
98703.185464479465736
98703.038517353925272
98702.891893341598916
98702.746528708317783
98702.60481986515515
98702.467895850291825
98702.334106087801047
98702.199803192299441
98702.061498097507865
98701.918117738925503
98701.77189574050135
98701.62661791856226
98701.48529730347218
98701.349060137785273
98701.217547625157749
98701.089983679383295
98700.966233526385622
98700.847171207482461
98700.733722256714827
98700.625596388475969
98700.520977585954824
98700.417544187876047
98700.314182467554929
98700.212264532601694
98705.298494140224648
98705.765333678631578
98706.25990812733653
98706.781933893056703
98707.331127512836247
98707.907269659714075
98708.510310703131836
98709.140459800401004
98709.798210822467809
98710.48429916704481
98711.199718618110637
98711.945686334671336
98712.723671675834339
98713.535233732283814
98714.381915417732671
98715.265151396175497
98716.185971733691986
98717.145406376555911
98718.142424365170882
98719.176978534742375
98720.238142033849726
98704.462899211910553
98704.383582462382037
98704.315123033316922
98704.257683930496569
98704.204418890672969
98704.142863359957119
98704.059999435950886
98703.948755756486207
98703.811441504280083
98703.658010172861395
98703.499883546392084
98703.344435732244165
98703.193476354557788
98703.045419202680932
98702.898501578572905
98702.753034613589989
98702.611008638821659
98702.473295545118162
98702.338303142882069
98702.202748011623044
98702.063475648101303
98701.919210301188286
98701.771458683913806
98701.623255868340493
98701.477073752364959
98701.334059626344242
98701.194743816144182
98701.059827130156918
98700.930551440265845
98700.808468308488955
98700.694222061400069
98700.586398183746496
98700.481912171671866
98700.377647462955792
98700.272391232021619
98700.167897058010567
98708.609265561754
98709.128707490410306
98709.67592029721709
98710.250570685602725
98710.852218011787045
98711.480476382217603
98712.135123476720764
98712.816202150817844
98713.524087115598377
98714.259491664604866
98715.023403437066008
98715.816980644638534
98716.641446172987344
98717.49805614881916
98718.388008924870519
98719.312349264393561
98720.271678333505406
98721.266625342468615
98722.295975643122802
98723.359707838011673
98724.447583003740874
98704.383322284862516
98704.318116939233732
98704.262906011499581
98704.21034410255379
98704.148368616471998
98704.064951850756188
98703.953645241737831
98703.816540253988933
98703.662763003405416
98703.503509074333124
98703.346600229866453
98703.194729162161821
98703.047165293159196
98702.902343014415237
98702.759982386865886
98702.620874371990794
98702.484943601652049
98702.350388016799116
98702.214494325598935
98702.074816501874011
98701.930347167828586
98701.782198836415773
98701.632681507078814
98701.48359552094189
98701.335853395547019
98701.190561246854486
98701.049567758105695
98700.91550394850492
98700.790763301469269
98700.67595349761541
98700.568918364777346
98700.465534373710398
98700.361945097349235
98700.256621663123951
98712.52139731819625
98713.117778773812461
98713.741005135787418
98714.390665683255065
98715.066408281549229
98715.768069051278871
98716.495749651803635
98717.249850544627407
98718.031061224275618
98718.840267281906563
98719.678419732503244
98720.546413960764767
98721.44502225900942
98722.374894671476795
98723.336619802939822
98724.330466881932807
98725.356814258339
98726.41438245367317
98727.503152553224936
98728.613599047370371
98704.378021154829185
98704.313780763870454
98704.255911500062211
98704.196905169446836
98704.127366869943216
98704.038540146895684
98703.925710498573608
98703.790268908283906
98703.639164305379381
98703.481646998829092
98703.325439720618306
98703.174794596430729
98703.030586073800805
98702.891896418252145
98702.757046749335132
98702.624518259923207
98702.492735672960407
98702.359667978424113
98702.223596325013204
98702.083670666848775
98701.940078670464572
98701.793892762623727
98701.646445023478009
98701.498391071363585
98701.349994117801543
98701.202560048332089
98701.058847234467976
98700.922298804260208
98700.795777694744174
98700.68002118828008
98700.572848636540584
98700.470007165538846
98700.36743105907226
98700.263390164967859
98715.931339546688832
98716.57347600137291
98717.241425144049572
98717.934862082489417
98718.653589537279913
98719.397651025195955
98720.167395691823913
98720.963418845843989
98721.786442193086259
98722.637185327374027
98723.516276896101772
98724.424193642655155
98725.361261023004772
98726.327592968329554
98727.323199355174438
98728.347856491032871
98729.401617338560754
98730.483230144032859
98731.592851817302289
98732.721835313161137
98704.303257280102116
98704.237045107249287
98704.164649924176047
98704.081116237532115
98703.982472762741963
98703.866778540948872
98703.734831683468656
98703.590230926231015
98703.438932528151781
98703.287508722540224
98703.141060400565038
98703.00192390466691
98702.869670346655766
98702.742001261533005
98702.615689265774563
98702.487789034334128
98702.356429312130786
98702.221182058245176
98702.082765271276003
98701.94246947245847
98701.801497546694009
98701.660218999502831
98701.518172858108301
98701.374818081880221
98701.230924731004052
98701.089207892728155
98700.953423956860206
98700.826729448206606
98700.71010880942049
98700.601655643360573
98700.497620981055661
98700.394537333311746
98720.030470671379589
98720.739971387389232
98721.474024237322737
98722.232611798375729
98723.015917195822112
98723.824335279947263
98724.658442415908212
98725.518876261543483
98726.406227119237883
98727.320957481089863
98728.263254898425657
98729.233076135264128
98730.230144243789255