/*--------------------------------*- C++ -*----------------------------------*\
  =========                 |
  \\      /  F ield         | OpenFOAM: The Open Source CFD Toolbox
   \\    /   O peration     | Website:  https://openfoam.org
    \\  /    A nd           | Version:  12
     \\/     M anipulation  |
\*---------------------------------------------------------------------------*/
FoamFile
{
    format      ascii;
    class       volScalarField;
    location    "0.0059";
    object      rho;
}
// * * * * * * * * * * * * * * * * * * * * * * * * * * * * * * * * * * * * * //

dimensions      [1 -3 0 0 0 0 0];

internalField   nonuniform List<scalar> 
106891
(
1.1479389865964244599
1.1480948978939009564
1.1482295323144300347
1.1483377588939527314
1.1484185215068212216
1.1484745112177225934
1.1485099350896246229
1.1485312043610427235
1.1485460055661158574
1.1485553700278818834
1.1485762362353721944
1.1518679964828753004
1.1519221193431088412
1.1519040245082177165
1.1517640064470138217
1.151513582913034961
1.1512247701909494868
1.1509917077870268631
1.1508821194145102407
1.1509048068784883956
1.1510120872437854533
1.1511306703837416165
1.1511982066495678456
1.1511837194018148534
1.1510910798557931756
1.1509523139753456977
1.1508124464527631492
1.1507134269390761894
1.1506834384001081162
1.1507286341216704795
1.1508414831058224603
1.1510020232590980616
1.1511804438551966889
1.1513422580653538407
1.1514552951105738732
1.1514955678410616624
1.1514559288994197228
1.1513554244017452088
1.1512409424463572183
1.1511745927251486599
1.1512097006280761491
1.1513672794067943972
1.1516246919439450114
1.1519253246935947654
1.1522039938205996812
1.152413840193174055
1.1525382984000025477
1.1525858515474101118
1.1525746379547907594
1.1472696614653756786
1.1472355548385131385
1.1472305431418889921
1.1472618618386312139
1.1473318836417722988
1.1474383150991307456
1.1475742945536961948
1.1477308268204993169
1.1478962249485744618
1.1480577024537184094
1.1482045125513977712
1.1483283299951325684
1.1484254970488421144
1.1484964974095344115
1.1485456432177356678
1.1485790782675833199
1.1486046830378708883
1.1486287160332111501
1.1486511959282270645
1.1486853873070417276
1.1518522389186602872
1.1518571396108714389
1.1517243127182561491
1.151471365838108829
1.1511779424934587279
1.1509429381478695209
1.1508349438747675908
1.1508642002168241181
1.1509837096134916123
1.1511183647965221866
1.1512056263169838655
1.1512178921963129863
1.1511603086355373105
1.1510629559715677139
1.1509667997656307659
1.1509069734621852898
1.1509024604285780224
1.1509606362418194347
1.1510745446223547006
1.1512245304144712588
1.1513845466393264338
1.1515264725342528873
1.1516238648014986978
1.1516559813619497987
1.151612665284806214
1.1515038364974448104
1.1513667050092464272
1.1512599713377555943
1.151243100245184614
1.1513505034852560271
1.1515752043874936117
1.1518719636685643692
1.1521774360082499555
1.1524358844290250037
1.1526170370252006858
1.1527158831391719485
1.1474347024588715804
1.1474114570781601685
1.1474097332430057694
1.1474376685944067678
1.1475003344238465797
1.1475983233002338135
1.1477259322788218032
1.1478733753510039772
1.1480283751999220687
1.1481782599645256049
1.1483122833246279804
1.1484231355066980562
1.1485087508933022882
1.1485720164776549446
1.1486186057995393384
1.1486552570342345447
1.1486901674188556566
1.1487277393013588522
1.1487676671281101815
1.14882038442367862
1.1517048863789949298
1.1517387215504235609
1.1516381977059204633
1.1514234261654165969
1.1511714259930214688
1.1509726946965666006
1.1508851887673980929
1.1509124052028409935
1.1510115990475275893
1.1511171075326589452
1.1511778515463717554
1.1511823546857342659
1.1511485326665669149
1.1511013758089889691
1.1510629831762981823
1.1510504884003376347
1.1510763420607843521
1.1511466264196499321
1.1512578513845808104
1.1513963470461709981
1.151541545534459754
1.1516699982838409788
1.1517579481790223284
1.1517855918609678501
1.1517415996664903677
1.1516290831256219551
1.1514746491913954163
1.1513281715952963236
1.1512501260285483706
1.15128740182843603
1.1514526204361283934
1.1517181594575451875
1.1520297017986838028
1.1523281370294522485
1.1525700702920795848
1.1527328362056441513
1.1476737130242324891
1.1476664174475617042
1.1476805272981114303
1.147723637297149768
1.1477993878205521305
1.1479051397583113214
1.1480324239313091095
1.1481686930545531578
1.1483013417532481615
1.1484198407925620966
1.1485177322658797205
1.1485932740925834938
1.1486504463268536469
1.148696150081207179
1.1487381196083585877
1.1487850324003092695
1.14883928491912779
1.1488995583389589594
1.1489727864153376213
1.1515777338971808774
1.1515413789485782203
1.1514058355751779494
1.151233258163346207
1.151095580957040454
1.1510363879363472162
1.1510507203316442393
1.1510990820549218405
1.1511393931816549241
1.1511502585018598133
1.1511384968386895178
1.1511279080550156362
1.1511366955376591825
1.151166567783143746
1.1512116504335443423
1.1512706272675798935
1.1513496236257863004
1.1514549503451783075
1.1515831859719523056
1.1517169942604743582
1.1518314273764087563
1.1519030975837134534
1.151915779510118476
1.1518630809692673722
1.151747719977039619
1.1515854577891555532
1.1514102233664811337
1.1512721718451701669
1.151223816655388088
1.1512982909397180276
1.1514947187860851141
1.1517784914324349366
1.1520944921654476811
1.1523874810290175574
1.1480405065337875303
1.1480175741145060009
1.1479963868320721687
1.1479882795222819958
1.1480035229140506114
1.1480486098526090366
1.1481240015736065008
1.1482238151680326244
1.1483363760276195098
1.1484487972381349774
1.1485499118129889329
1.1486340755577379991
1.1487003262766954936
1.1487535106568458332
1.1488006553595047077
1.1488490718443207239
1.1489068841996925574
1.1489750988557707601
1.1490527881015006884
1.1491443990723269053
1.1514055902146429489
1.1514330735114033377
1.1513944408573595357
1.1513275161079188358
1.1512724777513152485
1.1512467349175496967
1.1512374262920668233
1.151216963962635953
1.1511739371791736009
1.1511201071799290752
1.1510810675025064942
1.1510807144279460168
1.1511232996560192277
1.1511913564884288519
1.1512623130121246717
1.1513293009508140941
1.1514067572162001163
1.1515135795746542779
1.1516512438288091236
1.151796252740514781
1.1519134754882454086
1.1519764352358636827
1.1519795997928736764
1.1519308939496708533
1.1518378536999620554
1.1517029551633528595
1.1515334507578685042
1.1513559990253490195
1.1512214380786578438
1.1511848399920792119
1.1512780050158726297
1.1514952164849332483
1.1517942741080926528
1.1484133155884692634
1.1483733663783566303
1.1483413151516126405
1.1483293559800502592
1.1483456393622719638
1.1483921752446533127
1.148464607349897415
1.1485527851926427001
1.1486448529973196653
1.1487295482751302966
1.1488015653811860517
1.1488599927776064202
1.1489099222654706178
1.1489580248299728904
1.149010797677730622
1.1490753748482227525
1.1491516219707629265
1.149239512401128982
1.1493423283147059522
1.1512886974838305587
1.1513566327686188817
1.1514104152802298042
1.151446150348884423
1.1514502697149591182
1.1514120210586182846
1.1513303703367814279
1.1512239964990287344
1.1511272560438372548
1.1510709452588583357
1.1510679540697459355
1.1511066166372023734
1.1511593436870761753
1.1512056874591163336
1.1512503205883597435
1.1513204643192758159
1.15144102728464226
1.1516058712818064702
1.1517745758233941533
1.1518982309234966355
1.151952628993134109
1.15194938725994378
1.151917231394608665
1.1518714683931494669
1.1517986540423279518
1.1516730450294574428
1.1514883560293531772
1.1512819118650758909
1.1511297098427299979
1.151104207725199835
1.1512305621813974099
1.1514810494527334406
1.1488207420845584217
1.1487639016407991122
1.148715392280634795
1.1486874241881390724
1.1486872361737645587
1.1487159165780029824
1.1487688804159537082
1.148837033907470051
1.1489106194548526219
1.1489798456767297274
1.1490405064310258432
1.1490914246155912171
1.1491370778478424697
1.1491830051007183577
1.1492346581443801945
1.1492983238633063259
1.1493738360324252668
1.1494626563603711489
1.1495674991941473575
1.1512455761615225658
1.1513836889823856335
1.1514789994136689355
1.1515003036237376755
1.1514450381779610666
1.1513378053945921842
1.1512169430470808873
1.1511211316215801403
1.1510699701751130331
1.1510552906181779065
1.15105269345389849
1.1510419480344209475
1.1510262579808834271
1.1510341860516468682
1.1511029456104908686
1.1512533839293943583
1.1514641589544933886
1.1516739765111405625
1.1518211671687230702
1.1518855380070462946
1.1518953544643650844
1.1518965564735532681
1.151908588531969535
1.151903474550150408
1.1518279475227266584
1.1516538437033116971
1.1514094943265240634
1.1511739612496958429
1.1510420851680216447
1.1510689635884905346
1.1491508542020425487
1.149099868291868054
1.1490714754952053855
1.149070298999934181
1.1490949583959961799
1.1491392913323033032
1.1491943438584353299
1.1492524011781648507
1.1493062883182361134
1.1493544380364615343
1.1493963882323727788
1.1494361909477126549
1.1494779388855198565
1.1495253867085348798
1.1495831247551666632
1.1496509143389246344
1.1497314517397807521
1.1498272356632710522
1.1512347406829570584
1.1513617170319936367
1.1514067984026246094
1.1513657955192477811
1.1512741254850900052
1.1511836164093303125
1.151125812630215739
1.1510985243611608908
1.1510747114862622809
1.151025783383340384
1.1509446915273533474
1.1508577366326711022
1.1508190530116284567
1.1508789638609653316
1.1510508181607248535
1.1512966341151484873
1.1515424650077521473
1.151722520400189298
1.1518173366487292064
1.1518558350285934555
1.1518822655667648736
1.1519166318344771227
1.151933552894391477
1.1518813715158056077
1.1517267713003762619
1.1514907759243124818
1.1512450751499203605
1.1510687516976438882
1.1495425455061694109
1.1495080215888269226
1.1494931162946468994
1.149498986167473813
1.1495233301176785989
1.1495608370334047255
1.1496045384613891027
1.1496493101201055165
1.1496902575900538324
1.1497277625242070531
1.1497616721208494539
1.1497955063714426771
1.1498321469432817299
1.1498743185977307046
1.1499249218182885368
1.1499830588807968823
1.1500507088580758097
1.1501284434810152835
1.1511148814020557563
1.1511901190345592561
1.1511966168180409742
1.151154963831606759
1.1511024449996778429
1.1510691868048525954
1.1510579362403257075
1.1510427607590940635
1.150989656846575615
1.1508911339186758127
1.1507805187411423997
1.1507166169735396632
1.1507521542844771911
1.1509004433935174916
1.1511273686932608218
1.1513729522860221
1.1515801233080684707
1.1517202081133577352
1.1517995176980462269
1.1518383283191975242
1.1518456664772513953
1.1518162054226936952
1.1517369822484426756
1.15160295130838497
1.1514286739588448505
1.1512460107885529315
1.1510964592970738263
1.149946701728469467
1.1499551694908425326
1.1499718305103832083
1.1499935361350153151
1.1500174582590205752
1.1500413609789597036
1.1500654991243062231
1.1500891444554866005
1.1501152201331978908
1.1501440069211066319
1.1501779244140830638
1.1502170680629495436
1.150261194208214377
1.1503098684027421861
1.1503600198613763705
1.1504110520156924924
1.150461034079954592
1.1507746299503316401
1.1509057090648593391
1.1510298149733484419
1.1511050369408675209
1.1511119001888752145
1.151068827359629454
1.1510161541483465708
1.1509857670150027698
1.1509774030567634373
1.150965569431019464
1.1509267714824373829
1.1508618669788788225
1.1507995317750996378
1.1507804284150888741
1.1508317650798152165
1.150954823215213807
1.1511269099769385615
1.1513141528399912783
1.1514817778297647966
1.1515963858400224407
1.1516360176060664866
1.1515967683606156413
1.1514976739708278064
1.1513690564570127073
1.1512407509008766304
1.1511306746088925124
1.1510413814850224412
1.1504161253213915916
1.1504316842942396981
1.1504400347819236927
1.1504416651844060482
1.1504390574341811782
1.1504372635466961761
1.1504397905950218828
1.1504523351519284624
1.1504755715894832147
1.1505109400931778918
1.1505557019192280688
1.150605640576773947
1.1506553336254992104
1.1506987589091792756
1.1507322265669157613
1.1507512682532827775
1.1506703929888573157
1.1507910931841436319
1.1509495566953220624
1.1510719972191414406
1.1510978077124172092
1.1510276961705709908
1.1509227347100350336
1.1508559328354885931
1.1508638270639075518
1.1509303993994148829
1.1510026624984899257
1.1510298368809341873
1.1509966069162205216
1.1509280575003140168
1.1508720564502352701
1.1508726795790891195
1.150943327150495632
1.151068990728257635
1.1512083538569093388
1.1513113849131837441
1.1513420908729841141
1.1512900884071486374
1.1511672039524261102
1.1510111492608365857
1.1508656058910753384
1.1507559801029638713
1.1506859857187416996
1.1506344776964305687
1.1507488971979580317
1.1507233646103380842
1.1506891072997795789
1.1506540792195403267
1.1506275025150878299
1.1506149208437155274
1.150621622021524626
1.1506462319339831879
1.1506870519140142139
1.1507372035240608366
1.150789233204728923
1.150834688070461187
1.1508662565399712108
1.1508790356529181587
1.1508686516766895025
1.1508297461669936279
1.1510217143677075047
1.1511709002629029186
1.1511935615377257847
1.1510827690869216422
1.1509149372520901533
1.1507969349934381587
1.1507980180577213059
1.1509076519108858427
1.1510465138405052699
1.1511253134987886604
1.1511002695874790192
1.1509909579205719332
1.1508611823016936526
1.1507755633263583306
1.1507712630883781824
1.1508386970220467749
1.150932784115870966
1.1510007903956185338
1.1510076494991008378
1.1509457937286595719
1.150828072818869563
1.1506819245685069308
1.1505379857727209281
1.1504199836468271823
1.1503344348750796922
1.1502659296499986308
1.1508620210584292742
1.1507885268733537565
1.150721726763802133
1.1506738488558538869
1.1506511154795540097
1.1506573381284794788
1.1506879276048793681
1.150737155617145957
1.1507939886807136975
1.1508481641173022858
1.1508890094408705806
1.1509088655707655491
1.150903523117347671
1.1508706796938648065
1.1511183348895546175
1.1512669383775355758
1.1512642502986873971
1.1511025255806552892
1.1508735129561260546
1.1507101216979247482
1.1507000433460734534
1.1508306540576218602
1.1510050241289226935
1.1511114444496659548
1.151092382730582786
1.1509667653514223939
1.1508052557146295491
1.1506838881683660869
1.150643448027888649
1.1506712881035732199
1.1507196109967159359
1.1507412305554545195
1.1507093951583766689
1.1506249874204601547
1.1505077343157141812
1.1503772263421334632
1.1502466876322745559
1.1501253434489344674
1.1500148231473854565
1.1499101583380249014
1.1507808708031772582
1.1506841603208532998
1.1506171201760102552
1.1505864226249302718
1.1505942244156313059
1.1506326347205728666
1.1506918241649062296
1.1507566221602891776
1.1508138403552334861
1.1508511047221838819
1.150861498571456476
1.1508427715370992406
1.1507955271307321876
1.1513799525131840351
1.1513589574332054877
1.1511673135518623035
1.1509031968339453744
1.1507073109777135045
1.1506713486490816045
1.1507845847644824211
1.1509507023561096339
1.1510533734052947885
1.1510294222360351046
1.1508961964923634103
1.1507278993340162021
1.1506022867074734428
1.1505526892334396738
1.1505572003130466463
1.1505656256905985035
1.1505352239233046507
1.150455735358336673
1.1503427795740299722
1.1502208135003466616
1.1501038588748930813
1.1499906733369671397
1.1498726795031084524
1.1497441968067183549
1.1496092522865806185
1.150565689361875199
1.1504857625075266547
1.1504508132610300475
1.1504609018554694533
1.1505054364177529358
1.1505717246148556843
1.150641775878419093
1.1507009943626180792
1.1507363842441553636
1.1507423459264760623
1.1507184099983625014
1.1506676288860007151
1.1514059048528599849
1.1512017394605125187
1.1509264396128331409
1.1507113559199932951
1.1506451859850830299
1.1507250882220558807
1.1508647814562289469
1.1509557952433675521
1.1509357664462553927
1.1508186743244235295
1.1506731053725325342
1.1505667166743367424
1.1505218214279959721
1.1505091810521688167
1.1504779440724210993
1.150396595759488827
1.1502693287790046739
1.1501255519195319188
1.1499951938706225452
1.1498865212187041607
1.1497848172055191718
1.1496700903733798604
1.1495337314564808562
1.1493847582080247705
1.1512445325211271285
1.1509716605454698435
1.1507430199505057633
1.1506390736616511905
1.1506671494342668449
1.150759781595025899
1.1508253972726047998
1.1508082041930363104
1.1507167641368389877
1.150604140530098185
1.1505201902345723042
1.1504759953476741963
1.1504400157079046618
1.1503693884826817762
1.1502459818178643047
1.1500866952418695721
1.1499294889323499191
1.1498022368109017677
1.1497064955453517587
1.1496206687292542803
1.1495172698615658824
1.1493858061366382106
1.1492404780150666799
1.1507698922873514924
1.1506448772346462572
1.1506340666279537555
1.150691360605209379
1.1507442034413530862
1.1507415195544077324
1.1506825731552199343
1.1506021921665390284
1.1505328420489460139
1.1504761479882352759
1.1504035627015376519
1.1502883532147591961
1.1501277392480913075
1.1499495670088346611
1.1497911774256961426
1.1496758840857268513
1.1495972077446268145
1.1495259678164952977
1.1494349371748748823
1.149316786550967695
1.1491864827085218614
1.1507154678869568887
1.1507237627774038469
1.1506866058677247544
1.1506209140321139728
1.1505447112780333718
1.1504550603448107093
1.1503355280876270683
1.1501755655842709203
1.149988234962917355
1.1498063881251476825
1.1496637572879813138
1.1495735370662938379
1.1495187282407384188
1.1494691440602604615
1.1494001178334936064
1.1493065853268027432
1.1492034451624646429
1.1505523272636135612
1.1504188761960354448
1.1502487937823091535
1.1500487225724580487
1.1498441620734145552
1.1496706324434287083
1.1495539733580610875
1.1494943710595137976
1.1494679617236871483
1.1494441542877038565
1.1494028121517625429
1.149341818065281462
1.1492722776439232568
1.1503696106704208724
1.1501545763301022074
1.1499246735260899577
1.149714257406218243
1.1495570066042435364
1.149469303983422952
1.149440969206341423
1.1494437349334545306
1.149448519270670932
1.149439239094624865
1.1494144998644726385
1.149379490076317456
1.1431257388206859105
1.143876118245769069
1.1443696479177238867
1.1445128284650729622
1.1443359934781345277
1.1439615586532705382
1.1435510302078126799
1.1432415324884321883
1.1431012492792385071
1.143127283042407738
1.1432562647947261958
1.1433880037016148634
1.1434268909173950224
1.1433149632506722781
1.1430556257146748944
1.1427128813884692704
1.1423859908990010581
1.1421640888117146062
1.1421021019133743568
1.1422182218053651415
1.1416786832657437323
1.1424963529629603709
1.1433835214962779769
1.1440981488535506561
1.1444705787974345235
1.144471032878944472
1.1441882226258577315
1.143778491911772166
1.1433995453376182283
1.1431630299671597939
1.14310667968484303
1.1431951794589074733
1.1433374315554292178
1.1434281162922250719
1.1433915134196213081
1.1432119154949909046
1.1429354823545434527
1.1426446501466422934
1.1424135265200299205
1.1422888454729427377
1.1422921148812998915
1.142434662718963434
1.1412212563293275824
1.1409537813428276554
1.1412153993273730368
1.1419104058307267824
1.1428218979236521857
1.1436685405054498599
1.1442253956876056176
1.1444038538121574788
1.1442566557535824856
1.1439187887778015096
1.1435507557956479108
1.1432822254740295786
1.1431771420566614328
1.1432230493861805787
1.1433417657312809901
1.1434284587486778229
1.1434055106873159957
1.1432555556021348764
1.1430224474861017114
1.1427778211476764536
1.1425834500309530739
1.1424722074474715772
1.1424578279916601797
1.142554317119034657
1.1427830245343399973
1.1431632810542309286
1.1418437573636950333
1.1411533962448692225
1.1409094729863940021
1.1411473568233214682
1.1417879191555952989
1.142623778266472101
1.1433839589441519013
1.1438557935302380297
1.1439686977351992692
1.1437887488446791817
1.1434591956725783657
1.1431306643934870948
1.1429165455196321766
1.1428675147578895022
1.142959539330434815
1.1431060452448169595
1.1432026023660648573
1.1431811642808402674
1.1430440273704591814
1.1428505737992475932
1.1426762203616160907
1.142573945889594933
1.1425601774807563338
1.1426330617584070648
1.1427978785966144137
1.1430766421584914738
1.143491047233558433
1.1440394747387345742
1.1416400364932524081
1.1416542513352916366
1.1418942338331561359
1.1422666393423344111
1.1427011915012363907
1.1431257172831605917
1.1434415715740071651
1.1435459748879908126
1.1434056150377214234
1.1430893714839753805
1.1427302375375170129
1.1424541013015969693
1.1423348598286939826
1.1423894704434811587
1.1425844779878091551
1.1428438832346365928
1.1430702381222843655
1.1431887638302475896
1.1431876128177143048
1.1431345069086968902
1.143137119498734533
1.1432847064444371377
1.1436052492127044555
1.1440634329854193485
1.1445952691834189174
1.1451508870560878073
1.1457134346776716161
1.146284045296386056
1.1468554710248208828
1.1473896206223594962
1.1436117697116130465
1.1435394734813968398
1.1435227494640074486
1.1435125109111490271
1.143513629880374971
1.1435799365946199835
1.1437401628894787731
1.1439541136092561402
1.1441247898779451919
1.1441824171094614471
1.1441449561148810954
1.1440939655422901478
1.1441166086138854219
1.1442663556032166561
1.14455982277674706
1.1449782441319884541
1.1454569418186637542
1.1459048231679767049
1.1462420804141035813
1.1464481426791084395
1.1465798971461425015
1.1467282700918330907
1.1469583323550018861
1.1472722018021537238
1.1476148028068609008
1.1479164608668817049
1.1481401681186005348
1.1482965266887550371
1.148422230597949012
1.1485394021694963484
1.1486307330363654255
1.1486527506382901986
1.1459014714750332953
1.1458035699856541356
1.1457634429441510004
1.1457462663600292974
1.1457674722504189724
1.145878288275963941
1.1460966827271117374
1.1463501857618765278
1.1465206754367121
1.1465265479168658125
1.1463812918694056275
1.1461800082012931767
1.1460246056625411626
1.1459816711789263532
1.1460792278992355531
1.1463081198335769439
1.1466059616882542382
1.14687685378684745
1.1470350757508833706
1.1470599243619721275
1.1470132634263856541
1.1469927744436763106
1.1470639766097585621
1.1472261888470427493
1.1474195310125465674
1.1475720083338047939
1.1476500182136026851
1.1476721841521424494
1.1476830056447211437
1.1477071457125607168
1.1477245056157592273
1.147682696198077279
1.1475388176421965625
1.1450965359068365768
1.1449655472439468351
1.1446948117672548495
1.1443053121312622977
1.1440284011892922766
1.1440568918176712288
1.1461649195962375636
1.1459965739829087727
1.1458834553326229244
1.1457921949384370919
1.145741538270820703
1.1457853020792170273
1.1459398011115236038
1.1461275688062568801
1.1462214198097895324
1.1461386106605597757
1.1458982207519874397
1.1456015057140269686
1.1453580925328472606
1.1452388909646280535
1.1452742077856965519
1.1454516627669177886
1.1457076725820178886
1.1459370100160388706
1.146050356598389941
1.1460299776881621714
1.1459435965957809334
1.1458948648262921033
1.1459492908973749614
1.1461010017139672268
1.1462836212348375131
1.1464208735836012298
1.1464812712111387416
1.1464889717084472132
1.146492735267541363
1.1465188848067220384
1.1465431775282663995
1.1465057955433073378
1.1463589778946245978
1.1461111015876326302
1.1472118743083898895
1.1471225376200542279
1.1469990720920943961
1.1467139131586314704
1.1462856521352424721
1.1459618302970007164
1.1459485761514716096
1.1457684434592789735
1.1455758954807337968
1.1454391229773546179
1.1453257165834220821
1.1452571432571838628
1.1452880013607082965
1.1454352094286905928
1.1456160816205880337
1.1456967391907650899
1.1455951528738594902
1.14533614024904562
1.1450200410864876943
1.1447597495687427127
1.1446287106001360456
1.1446578595958978308
1.1448336813174211368
1.1450923943405091343
1.1453232177889325349
1.1454331437147444728
1.1454069215497117984
1.1453145854450397234
1.1452641386955781932
1.1453218196418426533
1.1454800084216960609
1.1456689500946470872
1.1458088478461971871
1.145868563495786363
1.1458746917886721839
1.1458789949016863208
1.1459090130668874163
1.1459388149005216295
1.1459041160223566447
1.1457567292812680382
1.1455037291514322817
1.1452165706480279539
1.1479529576844160754
1.1480739058263138563
1.148179514514222177
1.1482660350857218923
1.1483322950763423798
1.1483815071571148447
1.1484183773602609779
1.1484496480764783133
1.1484845944527461992
1.1485241626786235614
1.1485791422468942802
1.1518846256212296186
1.1515745198148232831
1.151198353066769986
1.1508679605731104711
1.1507149987087768039
1.1508116578005391784
1.1511177834033325951
1.1514912797501573039
1.1517696387908846756
1.1518672231073154855
1.1518070958301105389
1.1516797848529376491
1.1515676174010727184
1.151492459784660527
1.1514203456971829898
1.1513125863072366517
1.1511716293548523993
1.1510453891426601913
1.1509927240094091072
1.1510382538535464114
1.1511544487493747813
1.151283855364853892
1.1513768911183259736
1.1514188487196428401
1.151428580852408734
1.1514359550745674188
1.1514585628280342711
1.1514931785327544578
1.1515245701843379589
1.1515445275028330929
1.1515645110945660345
1.1516086586543947679
1.1516920103349399529
1.1518008991662738172
1.1518919427687257517
1.1519141605096860914
1.1473943230692427164
1.1473318142844912693
1.147300511982865201
1.1473021316312295159
1.1473369617824502598
1.1474025257061690741
1.147494519208924757
1.1476066386305419087
1.1477316833588555589
1.1478617684280165712
1.1479884479455975121
1.1481034870873372267
1.1482005281257838814
1.1482771543225473998
1.1483341406813087904
1.1483767010463852287
1.1484119911365096023
1.1484480892332757929
1.148491951984435433
1.1485446568525490285
1.1486148157654521018
1.1517720223161347359
1.1514026836032578149
1.1509851614244375195
1.1506430051923217661
1.1505088668316973965
1.1506473390780416199
1.1510058468312909241
1.1514297055634641342
1.1517481267081015606
1.1518692261535186105
1.1518191802003665547
1.1516931094201090513
1.1515777075874391588
1.1515014761090269779
1.1514366410433443111
1.1513452888226665127
1.1512266076550687899
1.1511231257208716094
1.1510880319117953174
1.151146797350655504
1.1512793190813963573
1.1514345026636554348
1.1515663657679489074
1.1516577121991484756
1.1517179293919599381
1.1517633388293422314
1.1517986846737200413
1.1518144452345109308
1.1518006663512487808
1.1517650584535386038
1.1517369030496393822
1.1517512430037109006
1.151822656602111028
1.151927538278303409
1.1520100838517626229
1.1520127684109759958
1.1475715518779814328
1.1474949781091581258
1.1474492620476548499
1.1474379590049406108
1.1474619242150299048
1.1475190351278814482
1.1476042589058847998
1.1477093917880980545
1.1478252069959236081
1.1479423664580863385
1.1480533103328252054
1.1481523344250357255
1.1482359989802211064
1.1483038504412561576
1.1483586092523263567
1.1484056530448669697
1.1484510951565067849
1.148502219855890516
1.1485628848608400165
1.1486332873135098875
1.1487193801866693033
1.1512610447314519657
1.1508482077513400021
1.1505342346102604978
1.1504314352081672634
1.1505894471917994526
1.1509513685527261728
1.1513755432715722105
1.1517033905773281788
1.1518449920973270473
1.1518125299808745776
1.1516904898136679503
1.1515655023868451856
1.151472673461059637
1.1514002759270416387
1.1513193189530210869
1.1512317123528068574
1.1511704768644390739
1.1511757568920362171
1.1512638191970046009
1.1514146423071196512
1.151588168814636548
1.1517490927605362749
1.1518831407510761178
1.1519922333725047814
1.1520770639235853317
1.1521262859352836561
1.1521230775810280544
1.1520634921351202706
1.1519703890830126358
1.1518897714487212891
1.151866429673368275
1.151914577060930478
1.1520041557552411771
1.1520725892469196872
1.1477028911712345849
1.1476554514963888121
1.1476407956948049272
1.1476596856827445681
1.1477087530559970663
1.1477820353559282651
1.1478712922186962153
1.1479676715315887403
1.14806265286644682
1.1481503497170992834
1.1482276878231389983
1.1482954176334012608
1.1483559506561049623
1.1484137253616775176
1.1484737226361061424
1.1485396468424107219
1.1486155932791499712
1.148700493222318153
1.1487925655374522371
1.1488943632440944409
1.1511198443043317852
1.15077081085488242
1.1505431730176376437
1.1505048063898246635
1.1506709270254951161
1.1509908128364627622
1.1513595199152899529
1.151659016884850395
1.1518091878473122325
1.1518027700014128456
1.1516927798609364331
1.1515483995975999143
1.1514177419638444988
1.1513155614094805479
1.151243274996663235
1.1511998416778639331
1.1512004818303871456
1.1512616271731064277
1.1513817175013367766
1.1515396855122022046
1.1517087574779225623
1.1518721714397230915
1.1520260139620370765
1.1521671954843144547
1.1522827437538027961
1.1523467121574022531
1.1523354666461005369
1.1522477125081898031
1.1521165275827915941
1.1519988102084202097
1.1519440188083513998
1.1519655592281590195
1.1520304624550388173
1.152076051870707607
1.1479647396340966203
1.1479282965786448134
1.1479180862073563585
1.1479338927549473937
1.1479719777450256846
1.1480264192954483526
1.1480904299639276278
1.1481579446740228789
1.1482239825323112825
1.1482862098367518922
1.1483438869515627534
1.1483999255648060789
1.1484578317550102611
1.148522659888175701
1.1485984605740999775
1.1486865766731082505
1.148788042119493813
1.1488970204767043892
1.1490094683453531132
1.1491243714133383413
1.1507855472330767999
1.1507120158350350181
1.1507571133283929221
1.1509068490527216699
1.151130807546778767
1.1513807164195144495
1.1515970130030885876
1.1517265260021951612
1.1517410557186731346
1.1516504915596004199
1.1514977988091876782
1.1513389135268154995
1.151219616254879119
1.1511662007630496518
1.1511841975521341919
1.151262694902049688
1.1513831756452885813
1.1515228108406880825
1.1516622481766476405
1.1517936239276831412
1.1519233909582813347
1.1520623206025200069
1.1522080076427896334
1.15233970571912403
1.1524199308678280129
1.1524187156750833605
1.1523351297494059953
1.1522030116014325696
1.1520779367886244682
1.152004738864782496
1.151993485367479364
1.1520148218768453408
1.1482646864591912195
1.1482605494804813961
1.1482734493138408993
1.1482991234682033976
1.1483325835591320363
1.148369615002462929
1.1484077271344348414
1.1484459049651551954
1.1484856413140642761
1.1485283610941208199
1.1485780611025597775
1.1486373612611084916
1.1487100146691797686
1.1487980704983271618