/*--------------------------------*- C++ -*----------------------------------*\
  =========                 |
  \\      /  F ield         | OpenFOAM: The Open Source CFD Toolbox
   \\    /   O peration     | Website:  https://openfoam.org
    \\  /    A nd           | Version:  12
     \\/     M anipulation  |
\*---------------------------------------------------------------------------*/
FoamFile
{
    format      ascii;
    class       volScalarField;
    location    "0.0059";
    object      rho_0;
}
// * * * * * * * * * * * * * * * * * * * * * * * * * * * * * * * * * * * * * //

dimensions      [1 -3 0 0 0 0 0];

internalField   nonuniform List<scalar> 
106891
(
1.1479434157776855496
1.1480982972812032727
1.1482315066148043314
1.1483380820794717447
1.1484171252560737564
1.1484715237269049748
1.1485056402351239146
1.1485259903645301804
1.1485403041745532171
1.1485496537922923466
1.1485709546533737768
1.1518798574039637028
1.1519327022796719273
1.1519106648738139942
1.1517657629390745111
1.1515119794149115684
1.1512230252892803328
1.1509930205329357289
1.1508880581817404476
1.1509146635482714327
1.1510235042139937978
1.1511409587064294069
1.1512054714642552256
1.1511873332781299428
1.1510916588144843864
1.1509513315421113777
1.1508116091373077339
1.1507141331593786493
1.1506863792070325392
1.1507336502780507459
1.1508481173832287858
1.1510092944795262682
1.1511870999223465795
1.1513470021641620811
1.1514570448635965683
1.1514937309663322296
1.1514507752793905482
1.1513483455662343324
1.1512342181967718524
1.151170606009153552
1.151209947024495639
1.1513716342769135803
1.1516314014132149612
1.1519318021249080886
1.1522079861941791901
1.1524142322902610758
1.15253522709480416
1.1525802088907530774
1.1525673880916760261
1.1472628909126201258
1.1472300971661859581
1.1472267351697214011
1.1472599445668310025
1.1473319478936703231
1.1474402209979084333
1.1475776288764558686
1.1477350002189941058
1.1479005810342406413
1.1480615870066939177
1.1482073828484311573
1.1483298410181825844
1.1484255364304312153
1.1484951247955401676
1.1485430203357447354
1.148575439467086845
1.1486003100714099467
1.1486239115833525304
1.1486463278682883526
1.1486808266520505128
1.1518640622481643998
1.1518644830682718272
1.1517262925322075962
1.1514698019641211868
1.1511763234485921092
1.150944576940300168
1.1508414334290737457
1.1508748851119670054
1.1509961649654254501
1.1511298127670335223
1.1512142392095958687
1.1512231591020929411
1.1511628111513090289
1.1510640415017541205
1.1509679447460596791
1.1509091241012963103
1.150906039111488699
1.1509657429976680731
1.1510806283957126794
1.1512307423527412542
1.151389913851389446
1.1515300328027615606
1.1516247682769811256
1.1516536709935574212
1.1516071560297185261
1.1514961150812272894
1.1513588118407922511
1.1512543838969209187
1.1512417788625848303
1.1513539543185566938
1.1515822345543214045
1.1518802119909881121
1.1521844061318848862
1.1524399087995036428
1.1526176476066665177
1.152713480491714293
1.1474288179980005609
1.1474064624079556296
1.1474059746217404321
1.1474354033894553773
1.1474996981111109662
1.1475992753668351476
1.1477281977254085721
1.1478764497213125306
1.148031642986240275
1.1481811263744687857
1.1483142698414339211
1.1484239538065179609
1.1485083314791926234
1.1485704837083536844
1.1486162040710128363
1.1486522754756962605
1.1486868646891807977
1.1487242874564640438
1.148764224460071981
1.1488170949567679813
1.1517179618722463985
1.1517473774989468449
1.1516416461620289091
1.1514235305083204697
1.1511714683232447953
1.150975627459750239
1.1508922350352390751
1.1509228461530383036
1.1510233027200200695
1.1511276612014511578
1.1511859745076100658
1.15118815829673804
1.1511527813884301352
1.1511048484540757908
1.1510662849015367293
1.1510541134018452691
1.1510805558156822492
1.1511514638402575716
1.1512630133823671397
1.151401283430655953
1.1515455826201592693
1.1516723940860769115
1.1517579710398304638
1.1517826957284067468
1.1517356667969396167
1.1516207652216892132
1.1514656169873933589
1.1513208015999290001
1.1512466895701003455
1.1512891023073121843
1.1514590094330812153
1.1517273838489852089
1.1520393023613715311
1.1523360421875046278
1.1525751096730909584
1.1527346850099089437
1.1476690499677948409
1.1476624450646624176
1.1476776387323663897
1.1477221059189699481
1.1477992821776574761
1.1479062766514886995
1.1480343793660079399
1.148170898158496156
1.1483032249169904393
1.1484209585652909169
1.1485178643880835647
1.1485924496587103238
1.1486488879164580279
1.148694168253051151
1.1487360178496712759
1.1487830244847223593
1.1488374481438214936
1.1488979132544492323
1.148971299975564575
1.1515886073080858765
1.1515478762924711287
1.1514092750424804734
1.1512362036853556191
1.15110029979543671
1.1510436531954273409
1.1510596285485967805
1.1511079924918388162
1.1511470496701075028
1.1511563938222735271
1.1511437461424176565
1.1511330945472386666
1.151142097210487103
1.1511718927098451015
1.1512165674102179391
1.1512751005569481499
1.1513538747873846013
1.1514591492212622459
1.1515871312760332934
1.151720074167841501
1.1518328988175712269
1.1519023170691309321
1.1519123811614713215
1.151857058455102667
1.1517395266543304366
1.1515762277802179536
1.1514018151234459708
1.1512667748726310712
1.1512231780195563147
1.151302935392108262
1.1515037077941367993
1.1517898209547081656
1.152105859075653882
1.1523970028251784292
1.148036156242179473
1.148012841329604905
1.1479918201482366413
1.1479844651289314861
1.1480009270640396668
1.1480474475838433612
1.1481241761638489862
1.1482249388163847659
1.1483378813807600949
1.1484501118581738055
1.1485506096227389161
1.1486339691455969003
1.1486994907149772338
1.148752233504100273
1.1487993091853652139
1.1488479905214925569
1.1489062661714293245
1.1489749771866155648
1.149053115385168633
1.1491450532935834072
1.1514183201232357501
1.1514428897330630797
1.1514018597804891453
1.1513339768462564905
1.1512790600567426313
1.1512535637465792782
1.1512436594843133975
1.1512218558721134531
1.1511776272408065225
1.151123435839782827
1.1510850880462493162
1.1510859938108655154
1.1511294356464805144
1.1511973072846863886
1.151267225656964488
1.1513331944417408703
1.1514103374305002525
1.1515174256534728148
1.1516551608554914665
1.1517993092426015433
1.1519146477859258937
1.1519752580505138173
1.1519762806626463458
1.1519258548152659927
1.1518313957981929363
1.151695363353042012
1.151525481072171786
1.1513493123734406254
1.1512182030339936922
1.1511866855175898472
1.1512852251573861828
1.1515066986039090846
1.1518077450744865775
1.1484081406505017853
1.1483679711961498615
1.1483365051057949913
1.1483257845514478479
1.1483436514049945032
1.1483917331282065266
1.1484653256890344775
1.148554063187161578
1.1486460759667957987
1.1487302786711115488
1.148801637788041452
1.1488595025254348947
1.1489091547720984288
1.1489573474818701726
1.1490105620398727293
1.1490758219522807515
1.1491528360638540995
1.1492414841045959228
1.149344938136038774
1.1513006988286398347
1.151367539437123666
1.1514200376626715361
1.1514540087573119642
1.1514558712465101653
1.1514151957901925805
1.1513315637540226799
1.1512244227322423473
1.1511283234881533044
1.1510735639582456713
1.1510721340704512805
1.1511114424055230998
1.1511636568251766288
1.1512089898323609738
1.1512531718893144195
1.1513239827580510344
1.1514457446826529274
1.1516110289397143429
1.1517785679073655469
1.1518997897241136652
1.1519517318844334497
1.1519470702351481961
1.1519145581442651327
1.1518685579116565432
1.1517946973155617219
1.1516673592079513799
1.1514814912841773165
1.1512760873526763916
1.1511279812867836192
1.1511084119276178139
1.1512404876317112734
1.1514945843050148344
1.1488151816687997009
1.148758034950363438
1.1487101417485225952
1.1486835331148108619
1.1486850906618566448
1.148715479693467767
1.1487697414101467608
1.148838561560705962
1.1489121691947181692
1.1489809550981107122
1.149041002900577535
1.1490914095272795059
1.1491368335479485996
1.1491828705733593274
1.1492349565527113509
1.149299310004057828
1.1493756782908934877
1.1494654628222265025
1.1495712682904346558
1.1512578249557567922
1.1513944071049495577
1.1514866350530019723
1.1515042733634111016
1.1514459650855830564
1.1513370583896904709
1.1512161259456814566
1.151121430170343185
1.1510715633934451851
1.1510574392683234901
1.1510544295690041672
1.1510428829612830981
1.1510270293612021586
1.1510361069836372305
1.1511072321203847935
1.1512601543102378709
1.1514718577307683223
1.1516802189792152422
1.151824466893972998
1.1518862955251210067
1.1518953360285066889
1.1518972860520308998
1.1519099184162535643
1.151903629874074575
1.1518250804358975969
1.1516478033064365682
1.1514023462571518763
1.1511691498100888875
1.1510427471745423578
1.151075782738334885
1.1491455944951125545
1.1490954143941711774
1.1490684140805500491
1.1490688887869646706
1.1490950989950896588
1.149140588656597739
1.1491962444704066915
1.1492543420286041034
1.1493078465439163782
1.1493554248002386675
1.1493968559005123264
1.1494363811677337228
1.1494781626459247281
1.149525950977343669
1.1495842921193819564
1.1496529059664810646
1.1497344642044469154
1.1498313604538230592
1.15124446084813159
1.1513684623392099748
1.1514098235217957722
1.1513658892485703067
1.1512732214591239188
1.1511834159558536061
1.1511267425698796796
1.1510998244765742182
1.1510751548003776978
1.1510246713974743304
1.1509424833712396108
1.1508561758411177678
1.1508203777085905806
1.1508845217089729296
1.1510601114257212885
1.151307336334222331
1.15155171689640623
1.1517287046736570666
1.1518208736885127141
1.1518584612346149942
1.1518854697260527686
1.1519203508550239778
1.1519360414131489811
1.1518806498265359295
1.1517223488531371789
1.1514844663822147997
1.1512398716521923259
1.1510672479545240865
1.1495391555403782213
1.1495056968107668638
1.1494920561373156431
1.1494991634285010029
1.149524511379788505
1.1495626481455645251
1.1496065734573748252
1.1496512261962059664
1.1496918420380222159
1.1497289476668177688
1.1497625112693372618
1.1497961606787847622
1.1498328362281176052
1.1498752741537410227
1.1499263449493433153
1.1499851275970025544
1.1500535889339249529
1.150132238831766518
1.1511204883782202302
1.1511932352971085969
1.1511975854079479209
1.1511550417645470823
1.1511029173100244538
1.1510705431985963632
1.1510595179612685968
1.1510432191593091833
1.1509881347833545995
1.1508883193262864353
1.1507784694331930631
1.1507177549840623687
1.1507578620886618204
1.1509101713791693999
1.1511390815952733391
1.1513842060786165788
1.1515892088249399805
1.1517268185820201953
1.1518044135032603492
1.1518422056487647165
1.1518486182794360762
1.1518178384800323855
1.1517367953359314292
1.1516009380943326157
1.1514255440754539439
1.151243065132722565
1.1510951016937298608
1.1499466988030992987
1.1499560922630804871
1.1499734316706682336
1.1499955226790967711
1.150019538932928409
1.1500433056570900092
1.1500671746383610561
1.1500905219571830873
1.150116377269460699
1.1501450776291288758
1.1501790605070068008
1.1502184130755404023
1.1502628579982239199
1.1503118936644773918
1.1503624024864296249
1.1504137836353514057
1.1504641146041783006
1.1507790172683414198
1.1509106959292234595
1.1510340648760277737
1.1511074857176770703
1.151112581456606998
1.1510688599473688498
1.1510168122583428474
1.1509875078474465226
1.1509795200165910956
1.150967031683071129
1.150927177372369492
1.1508618931398748586
1.1508006486376685107
1.1507839519377798254
1.1508381747752687296
1.1509636033447632197
1.1511368933244685575
1.151324035397737644
1.1514902377196420957
1.1516023664005565763
1.151639019142874476
1.1515972004502041948
1.1514966389989345075
1.1513677905195192075
1.1512401598161750016
1.1511309130561564462
1.1510420861480485932
1.1504176637863814392
1.1504332213544261609
1.1504414457612506251
1.1504429269570930483
1.1504402250295702181
1.1504384363096991084
1.1504410887079705716
1.1504538554046719323
1.1504773730775827989
1.1505130438632893419
1.1505580560173083171
1.1506081373405996349
1.1506578405059402215
1.150701137985221445
1.1507343466661799081
1.150753058924047334
1.1506732501834771032
1.1507964126715302111
1.150955309721734654
1.1510755550720763729
1.1510979952563293871
1.1510257170877880029
1.1509212737332885634
1.1508570450524135964
1.150867829548139154
1.1509358443201214151
1.1510073805523799439
1.1510324784238477047
1.1509972704216795414
1.1509281562843851621
1.1508734267166902399
1.1508765127839901687
1.1509496102059471045
1.1510766769337823501
1.1512156379543854179
1.1513165475799647108
1.1513442911113822564
1.1512893892586510969
1.1511646451464616625
1.1510084728724028214
1.1508641460665818279
1.1507561723211408022
1.1506872527841873755
1.1506354514502445952
1.1507488432222867658
1.1507228553326227516
1.1506885030081053234
1.1506537908478406962
1.1506278736621384784
1.1506161463588020499
1.1506237317846776946
1.1506491023727802858
1.1506904416245384848
1.1507407873259531961
1.1507926751875348081
1.1508376822526560357
1.150868551734025802
1.1508804653061390777
1.1508692028004752217
1.1508357744389390298
1.1510284997588076106
1.1511747499178253129
1.1511926950787603197
1.1510785828410667886
1.1509110962715545234
1.1507969309255872137
1.1508029741501888399
1.1509155961498913623
1.1510538860902124192
1.1511292570521745038
1.1511001987087055021
1.150988503133336005
1.150858942815270014
1.150775613695460553
1.1507742905304847447
1.1508436366347734037
1.1509377585385105469
1.151004089146784537
1.151008550701901445
1.1509444495515683826
1.1508252862445176312
1.1506788427282286236
1.1505356315558337155
1.1504189018849773074
1.1503342977252819512
1.1502657271783229831
1.1508592335981482346
1.1507858965328259249
1.1507199463327681954
1.1506734129921212251
1.1506522406241590506
1.1506599502257162104
1.1506916971265741534
1.1507415924196722212
1.1507985382404530839
1.1508523034240947247
1.1508922934081868839
1.1509109935563464067
1.1509043721126432924
1.1508703580754986451
1.1511254488600617396
1.1512703916779376545
1.151261894238468475
1.1510960478306200283
1.1508674266909608708
1.1507088359491366436
1.1507049620519758104
1.1508393775838450246
1.1510131462250234868
1.1511154302156729745
1.1510914375990455305
1.1509626849441416674
1.1508010005102655704
1.1506818374716707432
1.1506442457006222924
1.1506737558250335063
1.1507219534870880562
1.1507421017254879647
1.1507083839929876934
1.1506225977386508319
1.1505047557738974362
1.1503741872723625139
1.1502439144037390761
1.1501229552689173907
1.1500126776781329774
1.1499079939006311424
1.1507763506310755286
1.1506810339271698052
1.1506159768654278253
1.1505874671867073467
1.1505972604925240876
1.1506371363758289839
1.1506970723539911017
1.1507618484471962006
1.150818358594248858
1.1508544055005329732
1.1508633212536150126
1.1508431125536306983
1.1507946414264174084
1.1513826366986257277
1.1513553284829216583
1.1511591496246491584
1.1508953542134294779
1.1507044031434796594
1.1506748888517555063
1.1507922675109216737
1.150958077609328889
1.1510567388266026434
1.1510278140324821106
1.1508914779068184497
1.1507231268779241073
1.1505996925202883752
1.1505524517556562358
1.1505579063378486016
1.1505654954648945054
1.1505333792747491906
1.1504524891949918786
1.1503390438653806616
1.1502173616252970856
1.1501008153121503597
1.1499876727789892783
1.149869286498151677
1.1497403340713918674
1.1496053059095585613
1.1505616294125373678
1.1504841949458932682
1.1504518804739907178
1.150464281174422343
1.1505104434541748581
1.1505774853629062715
1.150647387966053703
1.1507056937776658501
1.150739662895275961
1.1507440150991945504
1.1507185775120094551
1.1506666726894030361
1.1514013688409112657
1.1511927310923932843
1.1509174141034943517
1.1507066992887919898
1.1506465303260211552
1.1507306122183880159
1.1508704861946783549
1.1509582377988580859
1.1509339889950573887
1.1508143523973435318
1.1506689710764859136
1.1505644614351115962
1.1505212088465031073
1.1505085292687373677
1.150475684621863115
1.1503923764018688658
1.1502640378503343754
1.1501205298037360247
1.1499912217462011643
1.1498833222376261265
1.1497815392446246729
1.1496660424256892608
1.1495288633436961945
1.1493797583181124544
1.1512353448599315087
1.1509621048931608644
1.1507368432562004035
1.1506380275683145697
1.1506700507568783376
1.1507634637920820531
1.1508269895955702822
1.1508067995647666137
1.150713601182007384
1.1506011697695686102
1.1505184601500706432
1.1504749264623512772
1.1504380115785863836
1.1503652982151961748
1.1502399677264334432
1.1500800905550694342
1.1499237742907193471
1.1497979885049438575
1.1497032479523783266
1.1496172872107250917
1.1495128779043572997
1.1493805481278795977
1.1492353043357546039
1.1507627703094966964
1.1506419065526738432
1.1506347543947696987
1.1506934811840843214
1.150745414197271721
1.1507408287300890937
1.1506806332188872499
1.1506001944279591331
1.1505312538081875484
1.1504741812969219161
1.150400014179486563
1.1502826871032143519
1.1501206275742741347
1.1499425200760295951
1.1497854963408988827
1.1496719575446869843
1.1495942262730514116
1.1495226959821380763
1.1494306897216957086
1.1493117646029360479
1.1491816600956952232
1.1507166341128636233
1.150723785807896693
1.1506855263954223201
1.1506192382059152735
1.1505424749147907804
1.1504516564290878655
1.1503303299399221249
1.1501686556299197672
1.1499806880943961307
1.1497996577511280236
1.1496588888007654994
1.1495704221147546864
1.1495163486601043257
1.1494663866453365131
1.1493964469205486534
1.149302318986008542
1.1491994284841733354
1.1505487452743983212
1.1504136654275811669
1.1502419478528076446
1.1500409171891943227
1.1498367148521182468
1.1496648494325296674
1.1495503920286842536
1.1494924243772686179
1.149466523728488232
1.1494422475157002328
1.1494001099088599904
1.1493386650665995408
1.1492692689937471506
1.1503625621384576672
1.1501463229377002495
1.1499163475699993864
1.1497072894606097382
1.1495523957257476333
1.1494671041064565831
1.1494402834410237801
1.149443394557725151
1.1494477179626176877
1.1494377968316515926
1.1494126376118614097
1.149377484928440829
1.143131191904973587
1.1438809987717561967
1.144371449421036635
1.1445106330769334591
1.1443306025034318818
1.1439547934498748294
1.1435448830027603595
1.1432372145861360302
1.1430992283094090212
1.1431271697349392191
1.1432568701265990452
1.1433877648556609596
1.1434243868693987345
1.1433096609056734305
1.1430483563793940593
1.1427055402975150322
1.1423804897314215889
1.1421612570508219431
1.142101577134723156
1.1422188343746479955
1.1416835611447557763
1.1425032538866675136
1.1433899155639177803
1.1441008391026039615
1.144468316427704524
1.1444647855470866382
1.1441801392713957242
1.1437708474155598992
1.1433939681236604535
1.1431601352298954577
1.1431061987434034677
1.143195745903803795
1.1433372031811182001
1.1434254876024461112
1.1433860572296536962
1.1432046823116652767
1.1429285133683766418
1.1426397275871795767
1.1424111740199864862
1.142288322774859477
1.1422921523375835218
1.1424342330928010103
1.1412207740580546655
1.1409557545742070594
1.1412206834048037596
1.1419182997328292117
1.142829289614373911
1.1436718835381665116
1.1442230317530805994
1.1443968631998961971
1.1442475539942820184
1.1439101117613530434
1.1435443303477432764
1.143278834406465938
1.1431764339631014238
1.1432235810998812031
1.1433413904990934462
1.1434254783226729391
1.1433997228485996978
1.1432483092921086332
1.1430159577094378687
1.1427736879872436582
1.1425818485801588764
1.1424719887845080635
1.1424576246517974543
1.1425533505847293991
1.1427812904361460689
1.1431611017018521448
1.14184192676002505
1.1411534388608604029
1.1409122044795434459
1.1411535987695717864
1.1417965256080038206
1.1426315188254851929
1.1433869282863853289
1.1438524785153556529
1.14396028439775721
1.1437781595872744678
1.1434494023123342732
1.1431236686934722613
1.142913080970926698
1.1428670655509807208
1.1429603725493060473
1.1431056881416188364
1.1431993220855793947
1.1431750137030649572
1.1430367648826453841
1.1428446116992472259
1.142673032576520642
1.1425733383634923968
1.1425606344487784227
1.142633062823063872
1.1427967926794617703
1.1430748127483352228
1.1434889610323535347
1.1440371216481466377
1.1416394843881003673
1.1416561481506664055
1.1418974806739685679
1.1422715888713153021
1.1427082509440642522
1.1431339838753036275
1.1434475890559974154
1.1435464050097432498
1.1433994588655655988
1.1430786254144478242
1.1427182978344354591
1.1424438838347994452
1.1423281111555734224
1.1423867647162933014
1.1425849409694994741
1.1428453344352906829
1.143070059427338192
1.1431852611047754742
1.1431812419917928292
1.1431276450288165858
1.1431324156824096416
1.1432835131982546084
1.14360690240313434
1.1440659363893026512
1.1445967604361131364
1.1451507327041181572
1.1457121165122918782
1.1462822954901266126
1.1468531886155732824
1.1473856081360249703
1.1436084243069579713
1.1435390790078068246
1.1435240474567092139
1.1435147038232265082
1.143517609855756012
1.1435866778841601299
1.1437483398017216363
1.1439605626285609397
1.1441256686286409572
1.1441765066446436538
1.1441342562651826142
1.1440819529408183808
1.1441063913741804647
1.144259896457478165
1.14455768658823831
1.1449796246120580445
1.1454593948061098097
1.1459054667154922047
1.1462390976181708879
1.1464421324886588938
1.1465735496967379703
1.1467243139643328309
1.1469578818424477351
1.1472742041791874623
1.1476169355194101307
1.1479167855803782405
1.1481382958331873834
1.1482933479021748546
1.1484188325536950348
1.1485356727143598565
1.1486253391353993258
1.1486440898206409233
1.1458979485451004088
1.1458030169214112881
1.145764567736175632
1.1457486800290785922
1.1457719919119617735
1.145885877122304608
1.1461060268950180596
1.1463572034242086595
1.1465215860029207562
1.1465198948062951256
1.1463693063603164202
1.1461666242351944422
1.1460131320989821457
1.1459741078990552943
1.146076379321192773
1.146309063539613593
1.1466080861749645692
1.1468769000042380313
1.1470311818276013316
1.1470529188025746503
1.147006160954468168
1.1469884571805606388
1.1470634319671955126
1.1472280980627189706
1.1474213067450167447
1.147571655835956328
1.1476473292641762303
1.147668367615104712
1.147679260780321675
1.1477033599154735644
1.1477191457338700165
1.1476738269153405891
1.1475257931852229643
1.1450972536147994152
1.1449633602841275959
1.1446870329233782559
1.1442965127827597893
1.1440266093241724388
1.1440649071724660057
1.1461610540902475996
1.1459957487622673966
1.1458842691727273433
1.1457943672695982684
1.1457460936414936015
1.1457932421795824496
1.145949418352016691
1.1461347311424072704
1.1462219747865252106
1.1461312877205285243
1.1458853078906265921
1.1455871409849760489
1.1453457787029444059
1.1452307296104138334
1.1452710772532683769
1.1454525931554608853
1.1457098164272476737
1.1459369068109948042
1.1460461065609925946
1.1460225260995569041
1.1459362249925368893
1.1458905839592536946
1.1459490009286996681
1.1461031765575653285
1.1462854569721110387
1.1464203348500601187
1.1464782841097704846
1.1464849404310255565
1.1464890089220172165
1.1465153454459326987
1.1465380649849445938
1.1464969271316245436
1.1463455597940623854
1.1460946967230916105
1.1472120142505703999
1.1471236635904984436
1.1469969290717512145
1.1467056624742442139
1.1462761105351084723
1.1459597213580405839
1.145956704078134436
1.1457644221694440745
1.1455748584892242459
1.1454398149902977888
1.1453277310785641152
1.1452617675228804472
1.1452960944976857682
1.1454452031146806767
1.1456233650689617853
1.1456971033278211536
1.1455875075902168803
1.1453228223737517144
1.145005132249966584
1.144746975310823256
1.1446203311083118503
1.1446546461901425662
1.1448347148962694231
1.145094651826614518
1.1453230732327013275
1.1454287053838207999
1.145399267479512373
1.1453070727692504782
1.1452598714442401295
1.1453216596775959157
1.145482327453797522
1.1456708002557181025
1.1458081721948309983
1.1458653530688569511
1.1458704920584770193
1.1458752437921153611
1.1459055785374310243
1.1459337680962851103
1.145895167220622346
1.1457430567195316939
1.1454868836500708973
1.1452000943772613351
1.1479547067160380536
1.1480745913917382861
1.1481787679221140408
1.1482637036123239938
1.1483284509938362916
1.1483764834756371442
1.1484126929412767915
1.1484438514332067083
1.1484791698824086126
1.1485195101952330177
1.1485753930647109033
1.1518818438597901999
1.1515681993211270839
1.1511914069214463918
1.1508652493585194154
1.150720620472580169
1.1508262527958152965
1.1511375648123818305
1.1515098828399141784
1.1517819556545836335
1.151872083212113429
1.1518069781063120516
1.151678362399070954
1.1515670759528988665
1.1514924850264858236
1.1514193101863086088
1.1513095668936015326
1.151167468393408333
1.1510420674477668257
1.1509918461238723975
1.1510396555560094001
1.1511563901708632418
1.1512842351864396306
1.1513745641945043463
1.1514141319866706414
1.1514227006805872744
1.1514300643075707775
1.1514530609937334571
1.1514876885672955531
1.1515185362330921937
1.1515379517297252843
1.1515581538872723399
1.1516034260604828265
1.1516880537629734516
1.1517971589396365228
1.1518865588826183721
1.1519056442951376429
1.1473861327335224125
1.1473250544608375456
1.1472954110769109093
1.1472987725950991589
1.147335304959461455
1.1474024286148363228
1.1474957048780065616
1.1476087002382540092
1.1477341217490950598
1.1478640328378886259
1.1479900470830799453
1.1481040330692107165
1.1481997532323908739
1.1482750015376490538
1.1483307810324736575
1.1483724756709046133
1.1484073622377701795
1.1484435493377873616
1.1484878844677370857
1.1485413131614683468
1.1486122331989507828
1.1517670328629190379
1.1513943766381939948
1.1509772107812381581
1.1506405194749824705
1.1505158598364291223
1.1506640525022739929
1.1510279668164515865
1.1514504927430930792
1.1517620873579459406
1.1518751664620705544
1.1518197456460392836
1.1516921261044077429
1.1515775213247918529
1.1515020397030868438
1.1514364577137221612
1.1513434004520750609
1.1512236885288313903
1.1511209645259838918
1.1510881054857493577
1.1511491565425919781
1.1512824978720574975
1.1514365644168755853
1.1515662099135450802
1.1516554147147546328
1.1517142427576556596
1.1517588599243786529
1.1517933848615948822
1.1518079185415357468
1.1517928339695358009
1.1517566860633563497
1.1517294035130760665
1.1517457759091229708
1.151819177306400821
1.1519245122754482313
1.1520052237572981912
1.1520044633852921656
1.1475625181484518933
1.1474872511124147856
1.1474432091278163881
1.1474337745113534215
1.147459576785753832
1.1475182923982354399
1.1476047565345961488
1.147710670292221069
1.1478267700651756389
1.147943731559915248
1.1480540685681535074
1.1481522289971215489
1.1482349501553423821
1.148301942127472941
1.1483560818750631061
1.1484028462268807136
1.148448356181309471
1.1484998278999152266
1.1485609832108323314
1.1486319024406901335
1.1487183704058610001
1.1512525176502701463
1.150841137316587437
1.15053311135438463
1.1504396591650689619
1.1506068487890501739
1.1509738765911692315
1.1513968646368015758
1.1517184381446969876
1.1518521697774328771
1.1518139533327305113
1.1516897361637032926
1.1515650386789388904
1.1514729846424518467
1.151400319195835964
1.151318481912688485
1.1512305719421023209
1.1511703776796851084
1.1511777266014155963
1.151267677572606285
1.1514191230660277832
1.1515918316021458434
1.1517510451631387536
1.1518833780757871121
1.1519910339605894389
1.1520743530640309427
1.1521215340644133107
1.1521158589390279037
1.1520542061542198287
1.1519605275656012999
1.151881344717758493
1.1518608246961230535
1.1519116093058492378
1.1520019956081706258
1.1520687182391295966
1.1476952450149509044
1.1476494067131355337
1.1476364790240567437
1.1476569998941832385
1.1477073890317277538
1.1477815494920728945
1.1478712200154204126
1.1479676207449363012
1.1480623631971820231
1.148149695794368208
1.1482266671494667509
1.1482941335070750988
1.1483545812965421096
1.1484124881859085754
1.1484728302931326294
1.1485392556575773071
1.1486157383929314069
1.148701056833149714
1.1487933426752174881
1.1488950488011122619
1.1511134796579176598
1.1507670232359001883
1.1505452954242672003
1.1505144276351573218
1.1506874142301619646
1.1510110421764063737
1.1513789726443770522
1.1516736245837975172
1.1518171507119929764
1.1518050494315854593
1.1516919135715963929
1.1515468277803484476
1.1514166595933428283
1.1513153493647141357
1.1512437721730919282
1.1512012361002881278
1.1512033246540709364
1.1512660717312424019
1.1513871640284227826
1.1515450724242057845
1.1517132485354046878
1.151875507708402413
1.1520282566569219895
1.1521682579361207655
1.1522819514665216811
1.1523431057706086111
1.1523285316568376846
1.1522381499729819065
1.1521063341480668463
1.1519903484501756719
1.1519387625440764555
1.1519632172688762939
1.1520291517624552391
1.1520733356713517281
1.1479580976535119774
1.1479230311804573539
1.1479142203090724195
1.1479312075290883932
1.1479700918600357351
1.1480248962602963569
1.1480888993760289818
1.1481561963935227322
1.1482220072748139383
1.1482841782857342583
1.1483420789713398857
1.1483986439114606259
1.1484573195870704243
1.1485230563890027611
1.148599779014349398
1.1486887099324643025
1.1487907585839274294
1.1488999785254863095
1.1490123025591412187
1.1491266864099647371
1.150788455308172864
1.1507189836922073756
1.1507679227442995096
1.1509207050688683438
1.1511462843116262444
1.1513957090774171732
1.1516092448992036879
1.1517342947033510914
1.1517439068218042753
1.1516494724068651045
1.1514949839822792299
1.1513364416629796594
1.1512190102861763474
1.1511681211853690421
1.1511884638992539998
1.1512685747677977588
1.1513896719107541422
1.1515289173708871395
1.1516673635598371206
1.1517977565511985372
1.1519270600886957201
1.1520658496334066356
1.1522110886829246557
1.1523412338943941347
1.1524185162960725037
1.1524137443414765869
1.1523274021927281119
1.152194493627678229
1.1520708876930909614
1.1520005083908582133
1.1519918162180329269
1.1520140809623145017
1.1482607845732430984
1.148257505245836807
1.1482710216152181015
1.1482969682985986193
1.1483303860872333679
1.1483671897941054585
1.1484050670471708244
1.1484431836892541323
1.1484831747391814893
1.1485265384985301473
1.1485772564399001627
1.1486378372275853899
1.1487118661900639349