/*--------------------------------*- C++ -*----------------------------------*\
  =========                 |
  \\      /  F ield         | OpenFOAM: The Open Source CFD Toolbox
   \\    /   O peration     | Website:  https://openfoam.org
    \\  /    A nd           | Version:  12
     \\/     M anipulation  |
\*---------------------------------------------------------------------------*/
FoamFile
{
    format      ascii;
    class       volScalarField;
    location    "0.006";
    object      alphat;
}
// * * * * * * * * * * * * * * * * * * * * * * * * * * * * * * * * * * * * * //

dimensions      [1 -1 -1 0 0 0 0];

internalField   nonuniform List<scalar> 
106891
(
8.1413517168825086639e-06
8.1332805098156605824e-06
8.1240058712347207402e-06
8.1162636120083714834e-06
8.1075800344233533014e-06
8.1005707841955230507e-06
8.0924950823805665798e-06
8.086017272746338661e-06
8.0782662101351918022e-06
8.071868217022308274e-06
8.0632929088513236477e-06
1.1346631805077740673e-05
1.1372905697657683611e-05
1.1402878097124523348e-05
1.1434643522340991618e-05
1.1465544874653032441e-05
1.1493100375520258122e-05
1.1515075115607113112e-05
1.1531008480734625387e-05
1.1541966941708170394e-05
1.1550235129090650975e-05
1.1558560338614494114e-05
1.1569135815605641174e-05
1.1583216160999836502e-05
1.1601390610253397564e-05
1.1623575244331239395e-05
1.1649695774164480831e-05
1.1679503382660920679e-05
1.1712036628950426174e-05
1.1746225526479550172e-05
1.1780176990218356684e-05
1.1812324726973431102e-05
1.1841362202773647426e-05
1.1865675187258781744e-05
1.1884285471099972122e-05
1.1896787575863064417e-05
1.1903285895365796473e-05
1.1904318476231814491e-05
1.1901528564467302317e-05
1.1896246066512449583e-05
1.1889258806819466788e-05
1.1881251503756452102e-05
1.1871949373568214321e-05
1.1861045853210982164e-05
1.1849417842447914124e-05
1.1837906491688455381e-05
1.182691201856993499e-05
1.1815091156215964038e-05
1.179913476162943741e-05
8.6403628123730982037e-06
8.631016924060369748e-06
8.6232548813687543164e-06
8.6139352865911528818e-06
8.6060526157930314426e-06
8.5965508542279143458e-06
8.5884146197063369578e-06
8.5785604421691234533e-06
8.5700514659208865191e-06
8.5598608354206080854e-06
8.5511767775336734325e-06
8.541048846883555733e-06
8.5327199995118008913e-06
8.5231250712452047842e-06
8.5154672431968910179e-06
8.5064875505760338014e-06
8.4994086790688198695e-06
8.4908210779522532807e-06
8.4839023745663809975e-06
8.4744183361535367291e-06
1.1947672051642534122e-05
1.1981362444232945811e-05
1.2017354717193149218e-05
1.2052206328212095008e-05
1.2083278869559691739e-05
1.2108281755400181312e-05
1.2126878719646866654e-05
1.2140433575088338951e-05
1.2151312739518963288e-05
1.2162318912360693308e-05
1.2175727704950271727e-05
1.2192719397243428922e-05
1.2213843294212725957e-05
1.223912789835830556e-05
1.2268374496685495245e-05
1.230134732630502695e-05
1.2336832713478449697e-05
1.2373748452826803052e-05
1.2409928870579715578e-05
1.2443737172052685158e-05
1.2473913011007809634e-05
1.2498948059164678283e-05
1.2518127981370631352e-05
1.2531384805243388813e-05
1.2538912186791321342e-05
1.2541407335309973331e-05
1.2539992149258259081e-05
1.2536047592524729048e-05
1.2529862788749837819e-05
1.252200244225993397e-05
1.2512483969404342008e-05
1.2501148016229235226e-05
1.2488800877005575463e-05
1.2476210836965940281e-05
1.2463402719185626618e-05
1.2448279373028622437e-05
9.0876186382644285309e-06
9.0775201531032826026e-06
9.0691186492782862281e-06
9.0587982600628536841e-06
9.0501151419824690098e-06
9.0395227376970388884e-06
9.0305983746176791e-06
9.0197498825043730873e-06
9.0105556910898397679e-06
8.99944535428630281e-06
8.9901246150249219811e-06
8.9790486620950883895e-06
8.9700336550624749172e-06
8.9594214027177253838e-06
8.9510149399772418382e-06
8.9410120073056311563e-06
8.9332187927946768435e-06
8.9237027641050126788e-06
8.9162515740606123704e-06
8.9058860785284810511e-06
1.2642269967454993984e-05
1.2682881230954759483e-05
1.2720291911787134996e-05
1.2752353283508939026e-05
1.2777265437948212226e-05
1.2794774586456937655e-05
1.2806175581849675406e-05
1.2813938587482580654e-05
1.2820434339474123567e-05
1.2828290631553486122e-05
1.2839319864920710517e-05
1.2854325062485833926e-05
1.2873622579274047063e-05
1.289731002696537521e-05
1.2924773368397349366e-05
1.2955676315416419242e-05
1.2989134485067195461e-05
1.3023760460384024268e-05
1.3057596685711494837e-05
1.3088885408310177281e-05
1.3116594085837782874e-05
1.3139864541099136933e-05
1.3159144079545397158e-05
1.3174516958642827413e-05
1.3186054449484028601e-05
1.3194387461844349948e-05
1.3199740710812887874e-05
1.3202141539677571513e-05
1.3201292256246116431e-05
1.3196832862745452094e-05
1.3189359820771614642e-05
1.3178969517883710118e-05
1.3166952195805580649e-05
1.3154271989529312927e-05
1.3142178627477310487e-05
1.313038794825483961e-05
9.5467699982504985865e-06
9.537673485533049297e-06
9.5262564222975951357e-06
9.5166725652741813725e-06
9.5048934404317591277e-06
9.4950952959069142873e-06
9.4831452717835608472e-06
9.4732003669357054874e-06
9.4611233453964489168e-06
9.4511536779149266883e-06
9.4390546974337539906e-06
9.4292528365768219092e-06
9.4174887216180317638e-06
9.4082071645135595958e-06
9.3970801523206055618e-06
9.3884826833721980857e-06
9.3779892656667531635e-06
9.3699689775865022172e-06
9.3587120581873164439e-06
1.3385686588048284755e-05
1.3421468729746145941e-05
1.345023011590436063e-05
1.347071528737807794e-05
1.3483141742393659976e-05
1.3488992977791702406e-05
1.349114624417013496e-05
1.3492555789915044429e-05
1.3495630402869151487e-05
1.3502596734086263019e-05
1.3514890372168732557e-05
1.353317134536918355e-05
1.3557980648727424841e-05
1.3589512431293783174e-05
1.362765659151757923e-05
1.3670915362564613825e-05
1.3717225156981240999e-05
1.3764007823768626451e-05
1.3808258584882968431e-05
1.3848372431438325035e-05
1.3882800799010021589e-05
1.3910693553266294747e-05
1.3932278054468601294e-05
1.3947811904400851229e-05
1.395776734110307842e-05
1.3962481429322456142e-05
1.3962693929652422527e-05
1.3959013777460271767e-05
1.395166433759423966e-05
1.3941586371508959507e-05
1.3929048973115678071e-05
1.3914948922664516589e-05
1.389989281277361242e-05
1.3882894971158394487e-05
1.0051557577060746016e-05
1.0039631695414160859e-05
1.0029701121513922863e-05
1.0017092495644101401e-05
1.0006576384194892891e-05
9.9935658737995267835e-06
9.9828877010884809791e-06
9.9698070412437890552e-06
9.9591106113946611575e-06
9.9459986524912502283e-06
9.9353134913650156167e-06
9.9221444384613228287e-06
9.9115172365631508552e-06
9.8985225684225016117e-06
9.8882647727069408479e-06
9.8759209229048607834e-06
9.8664411058912764653e-06
9.8549360853377389362e-06
9.8463108153071400965e-06
9.834126812053001245e-06
1.402011595991240759e-05
1.4067433681267090535e-05
1.4108370364627380319e-05
1.4140548835474665176e-05
1.4164119645894927209e-05
1.4180081311449225248e-05
1.419071789147037532e-05
1.4198660068206563057e-05
1.420662519173696024e-05
1.4216600036903679223e-05
1.4230138746734154876e-05
1.4248748981645660352e-05
1.4273214123230800886e-05
1.4303893262366032456e-05
1.4340246872158920457e-05
1.4381359500669838852e-05
1.4425084744487787531e-05
1.4468555270008779924e-05
1.4510129650755771902e-05
1.4547674830275342492e-05
1.4580895227133159687e-05
1.460951586396145365e-05
1.4633195337595095127e-05
1.4652435683869068135e-05
1.4667173656105534469e-05
1.4677221718176313361e-05
1.4682217050913123988e-05
1.4681910733343447994e-05
1.4676919089672803493e-05
1.4667826649606270596e-05
1.4655797506436063986e-05
1.4641873607869978249e-05
1.4627310865301012256e-05
1.0556868574489398083e-05
1.0546062202636044265e-05
1.0532254724341559709e-05
1.0520861920187438512e-05
1.0506718972974244089e-05
1.0495221949180458474e-05
1.0481111836675520275e-05
1.0469751085306814415e-05
1.0455658120391956263e-05
1.0444237455719375675e-05
1.0429922866873933462e-05
1.0418360206190390056e-05
1.0404120143146627288e-05
1.0392865091454844571e-05
1.0379318625750321264e-05
1.0368925305238727496e-05
1.0356328402748744686e-05
1.0347017077639101819e-05
1.033380980588859172e-05
1.4798737897738625449e-05
1.4839240565465786623e-05
1.4871127902825888894e-05
1.4895153611762257327e-05
1.4912808979723700116e-05
1.4926307239407454432e-05
1.4937759863733374819e-05
1.4949031810367508456e-05
1.4962007418544384345e-05
1.4978002050719701048e-05
1.4998175216325929511e-05
1.5023465325289842527e-05
1.5054183632458663817e-05
1.5090217346836222253e-05
1.5130157925846625679e-05
1.5172405472918998708e-05
1.5214726307867869982e-05
1.5255595754212081537e-05
1.5293559494002435448e-05
1.532763285611899137e-05
1.5357836696656537641e-05
1.5383677374041004936e-05
1.5404911346491053758e-05
1.5421449776233734079e-05
1.543306428042980454e-05
1.5439393861583452816e-05
1.5440170409896823782e-05
1.5435756150940785147e-05
1.5427124326895292234e-05
1.5415348771633190607e-05
1.540194458490615312e-05
1.5387747703924017234e-05
1.1099547298823638359e-05
1.108784149962956469e-05
1.1072970725734685156e-05
1.1060912493356719194e-05
1.1045897451384349409e-05
1.1033888572253431392e-05
1.1018970330997236904e-05
1.1007064641465819831e-05
1.099204936007622309e-05
1.0979888154376648995e-05
1.0964505714968967562e-05
1.0952038252549227786e-05
1.0936593387093259465e-05
1.092436074829626871e-05
1.090959793488384165e-05
1.0898320764809704049e-05
1.088464178255910452e-05
1.087460845107304673e-05
1.0860296294712055198e-05
1.5633558453926041295e-05
1.5662949279221703388e-05
1.5685326476980879711e-05
1.5702637927178746244e-05
1.5716914760180211762e-05
1.5730123604880959194e-05
1.5743978864507623391e-05
1.5759258625256209873e-05
1.5777349937265113585e-05
1.5798648973197765581e-05
1.5824138112418589293e-05
1.5854158835357848165e-05
1.5888607312046254842e-05
1.5926708956776477007e-05
1.5966988533595237568e-05
1.60081399850344486e-05
1.6048582205337915004e-05
1.6087515329221603876e-05
1.6123710846846115666e-05
1.6156402399071216765e-05
1.6185568420012473291e-05
1.6210646489091215956e-05
1.6231058943924879669e-05
1.6246503015260646265e-05
1.6257117608669372112e-05
1.62623421851758459e-05
1.6261912751176390679e-05
1.6256504149525211918e-05
1.6247530767762954115e-05
1.6236265613912478494e-05
1.1657588705361908373e-05
1.1641953656397245013e-05
1.1629605063918042949e-05
1.1614134053359136117e-05
1.160196799715513398e-05
1.1586500049449088837e-05
1.1574215889506605758e-05
1.155846144150141868e-05
1.1545705161093834133e-05
1.1529453904916168595e-05
1.1516279758352833919e-05
1.1499835945424999464e-05
1.1486850844608181586e-05
1.1471048537462027824e-05
1.145901550294888147e-05
1.1444274015550874791e-05
1.1433484307087183221e-05
1.1418144425862335127e-05
1.6471560339337303129e-05
1.6498149810127943175e-05
1.6518709312466564197e-05
1.6535111234133513752e-05
1.654908360419540193e-05
1.6562780464804239487e-05
1.657692170916547501e-05
1.6592669249076925963e-05
1.6611112253640519917e-05
1.6633063018810986122e-05
1.6659755137474199039e-05
1.6691809165395881287e-05
1.6728621435988358016e-05
1.6769624996756413935e-05
1.6813390945723466415e-05
1.6858224938102602214e-05
1.6903057255540410885e-05
1.6946237622123688782e-05
1.6985807724861324647e-05
1.7021431104303163634e-05
1.7051980995164543086e-05
1.7076621182770339281e-05
1.709496299147706327e-05
1.7107405600652332133e-05
1.7114109794359177465e-05
1.7115203522549329575e-05
1.7111372924483959701e-05
1.7104540472518503329e-05
1.2273474580616027584e-05
1.2257891427303991988e-05
1.224560790327060637e-05
1.2230430535802824763e-05
1.2218377993489292697e-05
1.2203103149963498693e-05
1.2190709241100372535e-05
1.2174871589313023841e-05
1.2161811942946736012e-05
1.2145239059758074698e-05
1.2131722479562668049e-05
1.2114899294514174433e-05
1.2101603426802701608e-05
1.208526974206500541e-05
1.2072829334551564724e-05
1.2057427274125025031e-05
1.2046019856572916546e-05
1.2030557188877554701e-05
1.731610892353155931e-05
1.7345937657816063658e-05
1.7371934067160691974e-05
1.7395297042301185634e-05
1.7417322243469290547e-05
1.7438807833518765907e-05
1.7460531299437393501e-05
1.7483640495264757752e-05
1.750929885107349067e-05
1.7538915954154066793e-05
1.7573634915527141951e-05
1.7613102065765753521e-05
1.7656406923066431808e-05
1.7701893945641976682e-05
1.7747386026872540954e-05
1.7791699822095052174e-05
1.7833133974884300899e-05
1.7870402459510142278e-05
1.790301093642148467e-05
1.7929955581988372233e-05
1.7950326501815963142e-05
1.796425830689013872e-05
1.7972264317725347255e-05
1.7975126635583702492e-05
1.7973770243117387249e-05
1.7968918031414306578e-05
1.7962384108737243624e-05
1.28380614665155675e-05
1.2821418566404651758e-05
1.2806277265491703164e-05
1.2789745654304264755e-05
1.277470941634744711e-05
1.2757440500277274526e-05
1.2741887070746229919e-05
1.2723649636974814314e-05
1.2707365569705485715e-05
1.2688636525096826227e-05
1.2672123291718943009e-05
1.265362627726786802e-05
1.2637778666263747268e-05
1.2619664663725446336e-05
1.2604859133604679982e-05
1.2587117460263271779e-05
1.2572222207185598759e-05
1.8026017143971582269e-05
1.8055551202476452846e-05
1.8076707822668984792e-05
1.8091738214123907221e-05
1.8103590806295771711e-05
1.8115224234047296872e-05
1.8128857093761194919e-05
1.814581634357520363e-05
1.8167284122077848578e-05
1.8193822395407229945e-05
1.8226577976766962768e-05
1.8265472630703896977e-05
1.8309601837778727144e-05
1.8356239432317615759e-05
1.8403307195746586273e-05
1.8448208538205472496e-05
1.8489145256837613503e-05
1.8525430055958861606e-05
1.8556223900757546648e-05
1.8580870546477032797e-05
1.8598931871089852428e-05
1.8609687169032407728e-05
1.8613563007779800691e-05
1.8611431556021873702e-05
1.8605018087547687086e-05
1.8595971176366225672e-05
1.8586142005075309308e-05
1.3147491094031994973e-05
1.3131662412647032809e-05
1.3109488905290781648e-05
1.3093830366837557334e-05
1.3071146950416169674e-05
1.3055038612987850729e-05
1.3031548325775342984e-05
1.3014835781184353738e-05
1.2990926827965368966e-05
1.2973948070923911017e-05
1.2949872875215249132e-05
1.2933253045363300203e-05
1.2909233506231943239e-05
1.2892857666510423119e-05
1.2864787732313908737e-05
1.2857807095808992658e-05
1.4097309469681687931e-05
1.413806869701925354e-05
1.4163671287355253394e-05
1.417731298810648462e-05
1.4183744534326960026e-05
1.4187940038293210521e-05
1.4193433346520330614e-05
1.4203087023707355153e-05
1.421876519463862121e-05
1.4241695184810414709e-05
1.4272565360139219252e-05
1.4310702988229785941e-05
1.4353744474648156038e-05
1.4398650091381056618e-05
1.4442494085778809351e-05
1.4482733510257895338e-05
1.4517813951913090972e-05
1.454719703795867229e-05
1.4570218828428474123e-05
1.4586980933353239451e-05
1.4597178120565234419e-05
1.4601269305718507773e-05
1.4600233141917927311e-05
1.4595424843551202946e-05
1.4588372575180461315e-05
1.458055183154872411e-05
1.4572442963686625778e-05
1.4564557999072693284e-05
1.0212229659104094784e-05
1.0195190709267727095e-05
1.0183080073873717019e-05
1.0165979964237268653e-05
1.0153886118348489823e-05
1.0136529757710051317e-05
1.0124223633057425503e-05
1.0106651731745185357e-05
1.0094095517200150699e-05
1.0076284538692583279e-05
1.0063671826115801227e-05
1.004556203898182188e-05
1.0032884700210171838e-05
1.0011507454134608704e-05
1.0008335462752755276e-05
1.3421758823168003266e-05
1.3437635281632885517e-05
1.3445179891174685764e-05
1.3447967737323608935e-05
1.3449399222548226264e-05
1.3452535410684676075e-05
1.3459403035929877365e-05
1.3472024659589124671e-05
1.3491939081585085618e-05
1.3519773306524199969e-05
1.3554766319615607154e-05
1.3595667521647802686e-05
1.364016865556189432e-05
1.3685457044874779328e-05
1.372909159760919572e-05
1.3769121776485366209e-05
1.3803506104492868325e-05
1.3831361201939218518e-05
1.3851498323159715917e-05
1.3863589406211418182e-05
1.3868156775348291539e-05
1.3866794820903526872e-05
1.3861283038080382841e-05
1.3853524622767426422e-05
1.3844915861960245716e-05
1.3835892874773807101e-05
1.3826508211340067552e-05
9.7238198713711212958e-06
9.7131959099109829882e-06
9.6985489891641119123e-06
9.6881127628563434959e-06
9.6733286354356188766e-06
9.6627383752628807136e-06
9.6476447291276831356e-06
9.6366070523066368826e-06
9.6210161203544052641e-06
9.609550418502460579e-06
9.5933724857070577384e-06
9.5816097749824252034e-06
9.5630711807001176575e-06
9.5544211622896292119e-06
1.2916079183904526442e-05
1.2924692092846039174e-05
1.2930712000730819222e-05
1.2936596659399523206e-05
1.2944480213734909941e-05
1.2955557837597012899e-05
1.2970833693826604743e-05
1.2991212323370080701e-05
1.301719411578908192e-05
1.3048543579379092444e-05
1.3083843857559665318e-05
1.312149886721001492e-05
1.3159778390315035636e-05
1.3196700367131858846e-05
1.3230685093157331544e-05
1.3260069158417885858e-05
1.3283364167631842414e-05
1.3299826214860364958e-05
1.3309476571788084575e-05
1.3313150169046483309e-05
1.3312403514861163628e-05
1.3308767423646488204e-05
1.3303278800241971408e-05
1.3296484803301518866e-05
1.3288530439120794418e-05
1.3279613984389732347e-05
9.3580131253210586115e-06
9.3441248891870003142e-06
9.3343341941671016936e-06
9.3204364378195396192e-06
9.3104956158479095462e-06
9.2961853892575025418e-06
9.2856479524205289542e-06
9.2706327437154494454e-06
9.2594119752653463574e-06
9.24366476608803848e-06
9.2320620082162825799e-06
9.2143210678247656142e-06
9.2051916116397382929e-06
1.2416822527133566446e-05
1.2424688202509526742e-05
1.2432649832289184366e-05
1.2442421079015080995e-05
1.2454957496385893971e-05
1.2470971480674840039e-05
1.2491614196024986843e-05
1.2517218324502120459e-05
1.2547444707380863281e-05
1.2581309681160249319e-05
1.2617706286649199565e-05
1.265517192474238519e-05
1.2692075064715714215e-05
1.2726739382587373703e-05
1.2757544546855378609e-05
1.278228742983291082e-05
1.2800266486040143277e-05
1.2811354652567648549e-05
1.2816479203182035927e-05
1.2817348359336380354e-05
1.2815452947864126968e-05
1.2811400487931712134e-05
1.2805494973643288405e-05
1.2797801740404334204e-05
1.2788593103270262712e-05
8.989843629379251874e-06
8.9802933762692386583e-06
8.9668367986612169284e-06
8.9571734990120279569e-06
8.9432415275841051954e-06
8.9328987561880250005e-06
8.9180995875790229231e-06
8.9069590981494319465e-06
8.8914430535524623236e-06
8.8799793835472255987e-06
8.8625994562519586344e-06
8.8537498164683379711e-06
1.1980661652042639358e-05
1.1988783940845964065e-05
1.1998602092230853912e-05
1.2011245830513640672e-05
1.2027870214072200472e-05
1.204908199370132441e-05
1.207522057204717434e-05
1.2105918694410544004e-05
1.2140393107563779554e-05
1.2177226541410246529e-05
1.2214909523913893135e-05
1.2252033843393647357e-05
1.2286599699105486193e-05
1.2316488607351266693e-05
1.2340294529259092333e-05
1.2356447104613369335e-05
1.2365109779649700102e-05
1.2367628781449373083e-05
1.2365885273048558593e-05
1.2361495265778293064e-05
1.2355700697375291092e-05
1.2348627860333484996e-05
1.2340149881415655813e-05
1.2330206340565429897e-05
1.1536659259588241227e-05
1.1546550793657883109e-05
1.1559368211889576672e-05
1.15758622819311724e-05
1.1596630679502227933e-05
1.1621691872965904065e-05
1.1650543505688883678e-05
1.1682098139292083699e-05
1.1715139915778175863e-05
1.1748286050672860774e-05
1.1780280897970743962e-05
1.1809817181833363905e-05
1.1835453333632069993e-05
1.1855766998611037697e-05
1.1870312804184947051e-05
1.1878792795063896674e-05
1.1882407082461080697e-05
1.1882603262016054379e-05
1.1880569689972790941e-05
1.1876633708458881599e-05
1.1870915064992603751e-05
1.1863171686909817755e-05
1.1853846781257385454e-05
1.1160407878125954543e-05
1.1173432513896831841e-05
1.118973328232728169e-05
1.1209413157186077855e-05
1.1232034491767782915e-05
1.1256756082244168349e-05
1.1282736455789660215e-05
1.1309194351233562152e-05
1.1335335837963481345e-05
1.1360491509432661379e-05
1.1383741822076903224e-05
1.1403985171825502314e-05
1.142024075612103548e-05
1.1432358118515241588e-05
1.1440180931165436264e-05
1.1444526281409596558e-05
1.1445979372866010195e-05
1.1444780608207800955e-05
1.1440698052705237649e-05
1.1434014853257957651e-05
1.1425276107638861417e-05
1.0773112574349627576e-05
1.0795828192434661551e-05
1.0820700690076308532e-05
1.0846486300506186996e-05
1.0872284665297866579e-05
1.0897255954095762091e-05
1.0920520523924397445e-05
1.0941041804356194683e-05
1.0957928542889906504e-05
1.0970836331823470005e-05
1.0979728950588350223e-05
1.0984847595325296455e-05
1.0986870174840173054e-05
1.0986108016690743517e-05
1.0982623776977415409e-05
1.0976546093559501769e-05
1.0968767439350118591e-05
1.0487822307242983589e-05
1.051298560209157278e-05
1.0536683779746418966e-05
1.0557863230501723855e-05
1.0575746925074356884e-05
1.0589408401902013091e-05
1.0598416582525225908e-05
1.0603171402566766469e-05
1.0604144079836871258e-05
1.0601917745504477129e-05
1.059708417726355031e-05
1.0590439452148627845e-05
1.0582573629396449603e-05
1.0121747768786317271e-05
1.0139849808690462441e-05
1.0154438955681430903e-05
1.0164855921001170129e-05
1.017104038841316412e-05
1.0173112863470760398e-05
1.0171655869813993008e-05
1.0167439480601286997e-05
1.0161503084349571131e-05
1.0154565875404170377e-05
1.014721363933340831e-05
1.0139505599061755217e-05
5.8377254228969614364e-06
5.5946872678134866949e-06
5.3927155697260775865e-06
5.2662795750453035622e-06
5.20718678036341927e-06
5.1916061966039637242e-06
5.1931642334571342107e-06
5.2198892254999264411e-06
5.3431063988596650161e-06
5.5414334012998500199e-06
5.6635002003145634215e-06
5.7162897132867325842e-06
5.7256877286634136058e-06
5.7187085365628114952e-06
5.6891055913109169303e-06
5.5947636110437912014e-06
5.4983408811027051859e-06
5.442733900352304871e-06
5.4186406620434489785e-06
5.4116914789261856377e-06
8.24645010672664734e-06
8.170905227172766338e-06
7.9005490358123927887e-06
7.5282799310853603061e-06
7.2728776476090727861e-06
7.1398035237279197762e-06
7.0965425669085768602e-06
7.0952889308238910928e-06
7.1223987335882035492e-06
7.26373928956828893e-06
7.5308206343566653072e-06
7.6951022608748168626e-06
7.7623803218582989905e-06
7.7703164410449374137e-06
7.7569850438361295916e-06
7.7034524310951115768e-06
7.536527216112967316e-06
7.3651458277768481296e-06
7.2602550287214057784e-06
7.2093755631939971591e-06
7.1925946773969870102e-06
7.1875441133012850026e-06
1.3201011030428474048e-05
1.3157861573942096402e-05
1.3043377705831294482e-05
1.2731032775730836699e-05
1.2372227052808050987e-05
1.2122678342180283754e-05
1.1998019985108587205e-05
1.196184699190599181e-05
1.1966786850707030978e-05
1.2000909761808945997e-05
1.2142941856313012162e-05
1.2379069550074842628e-05
1.2513446413254314052e-05
1.2558496963496576678e-05
1.2549947765840162084e-05
1.2524286532805615945e-05
1.2449225813235235977e-05
1.2239164553974478495e-05
1.2024056409172860315e-05
1.188789601013488731e-05
1.182052786166920929e-05
1.1800257461627159368e-05
1.1793378789243846023e-05
1.1802171766269571327e-05
1.1852605721693041223e-05
1.1907659784486317354e-05
2.849133353930866227e-05
2.8341298726619709481e-05
2.7958346881746768558e-05
2.7538434961361551491e-05
2.7259577774531381798e-05
2.7126349333510178878e-05
2.7097626739616654471e-05
2.7116102293299084835e-05
2.7234183057654054189e-05
2.759558186425855339e-05
2.7959380137924364271e-05
2.8158478398307371782e-05
2.821667011474965231e-05
2.8191745502826234793e-05
2.8122937233317511557e-05
2.793632093017852489e-05
2.7565922378865819576e-05
2.7278713146481696055e-05
2.7109921802000288351e-05
2.7047070772868939814e-05
2.7026839398472077855e-05
2.7037709151688386401e-05
2.7142041578154522708e-05
2.7315025471596259487e-05
2.7426739200914445997e-05
2.7472252157616083851e-05
2.7471175400990029261e-05
2.7450840271873172283e-05
6.3274498431890695282e-05
6.2874918853081832406e-05
6.2529163516379700628e-05
6.2288605302772705164e-05
6.216243626295760898e-05
6.2139009123235989488e-05
6.2165904349896589586e-05
6.2299007844726015911e-05
6.2608084955401147238e-05
6.2839563385858147057e-05
6.2954475027732556677e-05
6.2965313296254246255e-05
6.2918504378863934138e-05
6.2823940473433130907e-05
6.2594058109782492938e-05
6.2219036722999460022e-05
6.1897596323833053078e-05
6.1660919305792951089e-05
6.1509399162662568936e-05
6.143718061893120347e-05
6.1393417694221875123e-05
6.1380836697466951307e-05
6.1414275568019282159e-05
6.1419862602292007048e-05
6.1398885637922113513e-05
6.1363785076403221433e-05
6.1315684990990027958e-05
6.1212153376222634259e-05
6.1048474627745853596e-05
6.0887921442477673114e-05
0.00010067122605864775196
0.00010032710089999424168
0.00010002834645404925845
9.9792495611957177581e-05
9.9628394477628096039e-05
9.953587563930527452e-05
9.9486885964444050066e-05
9.9441109138805915189e-05
9.9355397728759350853e-05
9.919936650881069711e-05
9.8982168377997900382e-05
9.8726276965478454743e-05
9.8461744705259445594e-05
9.8211955562152176676e-05
9.7989040881199738196e-05
9.7795998645523014251e-05
9.7629967903941250636e-05
9.7485890049188165976e-05
9.7356308636906905814e-05
9.7232733608757678499e-05
9.7105159631923957633e-05
9.6964191341917491422e-05
9.6801973903832535867e-05
9.6616656180573078062e-05
9.6414920928596567463e-05
9.6210172386265041273e-05
9.6013608733125230732e-05
9.5829422539072883704e-05
9.5652154678339118684e-05
9.5475345321157400785e-05
9.529737987466964952e-05
9.5123312582007075685e-05
0.00012385208024309575709
0.00012354790437194129575
0.00012323913390885912972
0.00012293811183033961985
0.00012266668159067992713
0.00012243982209469959107
0.00012225270654790817374
0.00012207888904683665728
0.00012188827458764356641
0.00012166629122906173722
0.00012142233914400907692
0.0001211792863108403245
0.00012095623969544945476
0.00012076017735134834496
0.00012058392427452209233
0.00012041268459022637057
0.00012023309926810098105
0.00012003984062134749481
0.00011983647107376004675
0.00011963117817101043673
0.00011942867944448409638
0.00011922706786315724809
0.00011901957677476012094
0.00011880115130529075515
0.00011857478913469250779
0.00011835128621567448488
0.00011814019230211279549
0.00011794201732531116528
0.00011774564045273903825
0.00011754025587038530718
0.0001173253724030994254
0.00011711430802127012864
0.00011691877068196517974
0.00016171581353784339366
0.00016081203446847061708
0.00015987903052365411193
0.00015898192356236028424
0.00015814902507785879573
0.00015738722811007275788
0.00013617410752974796486
0.00013588037669120918362
0.00013557313163458807452
0.00013526966707360339542
0.00013499865504448273733
0.00013477934786237255214
0.0001346080903073156173
0.00013445358375601919928
0.00013427938366160490648
0.00013406863349667039556
0.00013383297512875846338
0.00013359996043259465305
0.00013339217837886384408
0.00013321640850826426392
0.00013306086422832066516
0.00013290467610212425113
0.00013273044849603906552
0.00013253289189808935733
0.00013231951218960937423
0.00013210264695617555193
0.00013188979445732885911
0.00013167902148150136248
0.00013146132909515697608
0.00013122961572544625578
0.00013098759813154158124
0.00013074897037753768466
0.00013052662040009929863
0.00013032014489736267566
0.00013011553974638859882
0.000129898604028223769
0.00012967056969925033652
0.00012944700707023557387
0.00012924531562109387636
0.00012906871517094997237
0.00015783004163483227173
0.00015695925120092163538
0.00015601376997818189318
0.0001550875769832311458
0.00015424966218063426607
0.00015350797000468919401
0.00015284395774640009138
0.00013461303686899115696
0.00013440162380321142707
0.00013419792294658169874
0.00013402428410005332721
0.00013390257901455692889
0.0001338346325630267457
0.00013379342704432112699
0.00013373379992847139156
0.0001336202379191090675
0.00013345339826356466227
0.00013326282923408971849
0.000133084918056664437
0.0001329384054346585361
0.00013281751117512279156
0.00013269969022719358136
0.00013255984638614007765
0.00013238470780905804008
0.00013217827705909712113
0.00013195574163810236379
0.00013173272012829620589
0.00013151515981558686125
0.00013129763074208966145
0.00013107100604423644707
0.00013083351893852847325
0.00013059498086439560918
0.00013037177079726206593
0.00013017310747460132344
0.0001299911281784717253
0.00012980765589753584088
0.00012961317507458847381
0.00012941649972138624214
0.00012923856528496876204
0.00012909190823073556109
0.00012897015933004851067
0.00012885439705449014034
7.662605146510235069e-08
7.6762154517490701653e-08
7.692000235882145754e-08
7.7177099874815606695e-08
7.7332195093860091304e-08
7.7430285073840389034e-08
7.767763091551860207e-08
7.7806909500612013505e-08
7.796206578336795688e-08
7.8149129774554215938e-08
7.8660641276826434435e-08
6.8308133684769969635e-07
6.8259361485027894325e-07
6.8205237370837167011e-07
6.8153216513579267663e-07
6.8097640745640791769e-07
6.8040350024315739937e-07
6.7984338756472087207e-07
6.7932043349013943312e-07
6.787954118563386032e-07
6.7823644058449378213e-07
6.7722382151252424653e-07
6.7494931407519782992e-07
6.7226856267563127307e-07
6.696603832999400729e-07
6.6714287219336334734e-07
6.6481494711492731691e-07
6.6274331940530541068e-07
6.6093004613081411177e-07
6.5933246202337334398e-07
6.5793320940740787545e-07
6.5671604816628080412e-07
6.5566931302423137946e-07
6.5479197077120385945e-07
6.5401976431129786303e-07
6.5329732931047982659e-07
6.525653675613899869e-07
6.5170230402239315457e-07
6.5048066079269747509e-07
6.4821683850577256595e-07
6.4267044887526461572e-07
6.2639909883619935066e-07
5.9672272205718455734e-07
5.6498872343611752343e-07
5.3284019993645117746e-07
5.0018305105779371904e-07
4.6824648534901016714e-07
7.8930545763600834964e-08
7.9138705193128164086e-08
7.93067573852796746e-08
7.9423493147035321904e-08
7.9577831114883404882e-08
7.9668621109939912002e-08
7.979361567167556693e-08
7.9922363859870564532e-08
8.0048889604106742174e-08
8.01919923325794053e-08
8.0383628863543274636e-08
8.0507971955440971221e-08
8.063142666865577529e-08
8.0850361437266874251e-08
8.0954061470598767987e-08
8.1046955989065383943e-08
8.1272950773062545817e-08
8.1333248059328004863e-08
8.1489432180985769443e-08
8.1641029210966971327e-08
8.2068965159836768839e-08
6.9535039380662194404e-07
6.9533102771890771264e-07
6.961616471770326392e-07
6.9756706008679117272e-07