/*--------------------------------*- C++ -*----------------------------------*\
  =========                 |
  \\      /  F ield         | OpenFOAM: The Open Source CFD Toolbox
   \\    /   O peration     | Website:  https://openfoam.org
    \\  /    A nd           | Version:  12
     \\/     M anipulation  |
\*---------------------------------------------------------------------------*/
FoamFile
{
    format      ascii;
    class       volScalarField;
    location    "0.006";
    object      k_0;
}
// * * * * * * * * * * * * * * * * * * * * * * * * * * * * * * * * * * * * * //

dimensions      [0 2 -2 0 0 0 0];

internalField   nonuniform List<scalar> 
106891
(
0.01516001935409968214
0.015153017943050793234
0.015141370078504589464
0.015134927227479963094
0.015124146935738928821
0.015118762670990340546
0.015108538982682126126
0.015103642660241257956
0.015093640529266877034
0.015088712306341491021
0.015076082774178722196
0.018405245403975620949
0.018518332386177411425
0.018642157167871219875
0.018769150924351250126
0.018890828983971770516
0.019001160350883904843
0.019095465853197265277
0.019173775107146750346
0.019239229529165239457
0.019297488672792354608
0.019355806577971108179
0.019420852205822850683
0.019497548522392368908
0.019589109117301776314
0.019696004523313447726
0.019817609162158258962
0.019951987440351412473
0.020094830843789983355
0.020241875099049098236
0.020386633327538407345
0.020524127548723593989
0.020650544725062999069
0.020761118482149388403
0.020853204691995537445
0.020925803213091419275
0.020979105764416847157
0.021014062814777096505
0.021035137259166645368
0.021046120113896935044
0.021050044542674891529
0.021050837109531646968
0.021049347480348108014
0.021045251076320332928
0.02104047552185763989
0.021035359097445405913
0.021028719521386914082
0.021014748342135042281
0.020982845670466331728
0.016024492446831937326
0.016010664137120433903
0.016002665227173445972
0.015988972333557272681
0.015980886036982080295
0.015967256145510175941
0.015959321221078907188
0.015945699774275179372
0.015937728971919452869
0.015923950283724914306
0.015915927817297774449
0.015902336075030446688
0.015894966263501196513
0.015882079392495741105
0.01587555536933871192
0.015863180919079029191
0.015857171812370486619
0.015845087470366558957
0.015839120022739763133
0.015823950469230217003
0.019414435515959255207
0.019549912365863602454
0.01969086791579756357
0.019826597232054380543
0.019950331312671095579
0.020056710868490860988
0.020145690156646009483
0.020220963082894807122
0.020288590484476291126
0.020356337231694398432
0.020431431934933758782
0.020518722427697009408
0.020621229526887389222
0.020739706656507511662
0.020873063055392403198
0.021019304221234377111
0.021173235370854148057
0.021330757262406768726
0.021484718315870759975
0.02163014330922093803
0.021763329387681121241
0.021879519266312711517
0.021976364425775635203
0.022053421911242526016
0.022110828902414236125
0.022150186642785538865
0.022174661038570134958
0.02218899154298587667
0.022195166242040591242
0.022197004207452540603
0.022196205050488949928
0.022192596931019568929
0.022187661100332742997
0.022181469496263393759
0.022171538628544710386
0.022149327401318395087
0.01684013607842750615
0.016824569210502782896
0.016815657152865044754
0.01680006977853772121
0.016791053803420372126
0.016775481121958427805
0.016766618181164514439
0.016751083076160685342
0.016742089497002520665
0.016726243863011833884
0.0167171288219018499
0.01670130944281896998
0.016692758522187736009
0.016677564476130824628
0.016669800510455974607
0.016655144077849605433
0.016647882500920342663
0.016633562619630538892
0.016626542201100213969
0.016608817253037033712
0.020649420886921378282
0.02080859145085857051
0.020956070307854277046
0.021085362210393823745
0.021192073171171655482
0.021276656391952759872
0.021343586172945953894
0.021400160787929441847
0.021453005011163303606
0.021510070184962072626
0.021577623299842533383
0.021659447269539319758
0.021757623845600371215
0.02187261475513140388
0.022001472527157291126
0.022141687352398686794
0.022289367039423736011
0.022439847549875512056
0.022587238043282387157
0.022726528861792813507
0.022854728914266844025
0.022968650445368093277
0.023069087478503173122
0.023155356457549097771
0.023226784200692015409
0.023285094411682621257
0.023331150380266483385
0.023365941211676462264
0.023390085638569098336
0.023404249948654726188
0.023411951467934177806
0.023413577705153933162
0.023412118497141601314
0.023408425017516467509
0.023404528567124698729
0.023398187369542376712
0.017679981359425927384
0.017670202668166865023
0.017652611765671642752
0.017642496348439038606
0.017624762809194855634
0.01761472577983339699
0.017596910353434261354
0.01758665593138219671
0.017568560790963982238
0.017558322141708139486
0.017540094392942313234
0.017530185294908896126
0.017512464435381059485
0.017503311494902161483
0.017486316863762795676
0.017477734227580057208
0.017461187527316287399
0.0174530714771295066
0.017432742080782881455
0.022018830220163439215
0.02216256014514696171
0.022283659348729372568
0.022378791416040964141
0.022448864057147906864
0.022498235292964477439
0.022535623759087259482
0.022570253762775528694
0.022610363258658391222
0.022664308561147789023
0.022738067154342216786
0.022834397908498074714
0.022954661748438798252
0.02309826304078286402
0.023263611448060876608
0.023445115108187818825
0.023636429007351661413
0.023830340393418258244
0.0240178602927717047
0.024193585644374186044
0.024351076326864413285
0.024485606660296265619
0.024596117433949737929
0.02468226765531400177
0.02474554667996631957
0.02478796652508619483
0.024813926574202990749
0.024827882303104457234
0.024832745512990864883
0.024833050179674465152
0.024829419076666057326
0.024823192077221670898
0.024813965491011308329
0.024795984839621091483
0.018598081059961524275
0.018578665539365102344
0.018567725299190498967
0.018547856562190621899
0.018536473790369278197
0.01851627027916201082
0.018504851496179725023
0.018484487854077285424
0.018472878968032235836
0.018452281101526728929
0.018440748784895485274
0.018420081804116923696
0.018408868552778061278
0.018388572509701842095
0.018377917238718552428
0.018358500977853332847
0.018348534676653732722
0.018329804035694542697
0.018320558647659405949
0.018297551006882083885
0.022946419343943393748
0.023128851093165467279
0.023292527453117464059
0.023429365884020718347
0.023538693761740787924
0.023622405877459128759
0.023687222791549753659
0.023742071163731837125
0.023797196041792166576
0.023860868212782746639
0.023939503061142300422
0.02403818860917203426
0.024158662362696710357
0.024300773751453241117
0.024461349951638979711
0.024637006369554168006
0.024821492449314773443
0.025006575834463015684
0.025187661257263165709
0.025357245903130376519
0.025512896724596452469
0.025651600096263466044
0.025770247556376801867
0.025869489890353855599
0.025949141835924460081
0.026009857518296354562
0.026052606682654636666
0.026079090954552408554
0.026093628455230024471
0.026099204330857737888
0.026099258573406700773
0.026095511379772656085
0.026090037695415735364
0.019521651115009839433
0.01950951921278096246
0.019487170543217670338
0.019474332875788969571
0.019451529387577368158
0.019438466430399953255
0.019415553205077592386
0.019402710609953438547
0.019379799291685838314
0.019367036012893131675
0.019343863550546919888
0.019331144033427585111
0.019308373025426026071
0.019296224076278740978
0.019274503793861530454
0.019263131588755658119
0.019242071346011625083
0.019231591878979558546
0.019205772877430863504
0.024316810381037185645
0.024482241698567906718
0.024621103974651600832
0.024733827110135237631
0.024823515865664023961
0.024896932810723578638
0.024961886226073783795
0.025026460349417675721
0.025099129633085626861
0.025185625608376244894
0.025290060122817700078
0.025414653603853944869
0.0255587585673296043
0.025720812621873249959
0.025895828204428716218
0.026078922612992459784
0.026263337395593916446
0.026444410692487482079
0.026616786005979269081
0.026775860512086618187
0.02692027297225051824
0.027047000327334973224
0.027154408691353101174
0.027242314150227080888
0.027310996308717264136
0.027361045526429240982
0.027393808705100320539
0.027412493893449171867
0.027421259637699813005
0.027423123037374531191
0.027421622429763991419
0.027417619779220712972
0.020510918619458827494
0.020497334628474465912
0.020472512302649126248
0.020458278660067198695
0.020433044019455982865
0.020418749341199800978
0.020393558044756114611
0.020379593488991942091
0.020354459093484312399
0.020340453163899294836
0.020315131531604021381
0.020301079898998122125
0.020276006527634379828
0.020262399003244037365
0.020238247999003419059
0.020225494809305757937
0.020202112525256745584
0.020190358716948353379
0.020161666256476539622
0.025813389014279312927
0.025947813480377231177
0.026057707622640275541
0.026147811320555710418
0.026224477013714331264
0.026295328522894720336
0.026368033878730982866
0.026447617128244917811
0.026540567203552661857
0.026649080446169801095
0.026775760860367685962
0.026920168853550190124
0.027080542793557076803
0.027253423646208432829
0.027433522030349235393
0.027616442721492103635
0.027796848175206435166
0.027971930024926188602
0.028137223437477425214
0.028289683329135964507
0.028428965110805247407
0.028552883437836708985
0.028659121082863951019
0.028746732312795834907
0.028817146683652660605
0.028869891372690106163
0.028905408807962638257
0.028926617462233721739
0.028937864670452756455
0.028942173500125168567
0.021537826877984327101
0.021510961273852657882
0.021495947217253136979
0.021469068149563296649
0.021454221404929314787
0.021427242984368828627
0.021412463882735759124
0.021385581089793295057
0.021370684487956290859
0.021343691730381725291
0.021328667894836395025
0.021301583315163682281
0.021286838499658858326
0.021260458507369885128
0.021246482320739081689
0.021220730374694310449
0.021207690884444903995
0.021176740912655409033
0.027256335026582288045
0.027383021169611079099
0.027486690929304124359
0.027572953526661916207
0.027648185254904155544
0.027721231088374809898
0.027796869156401570605
0.027881726195871717189
0.027980931882418662998
0.028096852997151259418
0.028231954713638780091
0.028386366201086980082
0.028556690912425710532
0.028740405844027799159
0.028932717103839138834
0.029128153156183923811
0.029323275229264138264
0.029512666016183273371
0.02968989657025878498
0.029854051091841457555
0.030001139507276730622
0.030127828060492141404
0.030232264093638581276
0.030315720171559496637
0.030379092426205313998
0.030423200486302339612
0.0304505127994194498
0.030467444911026483195
0.02269379119064906386
0.022667429979279746927
0.022652538054535958922
0.022626438487423572443
0.022611808932533328936
0.022585624656677898148
0.022570900448232428248
0.022544511760306605586
0.022529554952460402462
0.022502532880736988985
0.022487381485910312717
0.022459930247742041637
0.02244497708973589023
0.022417551252150239027
0.022403101129614119702
0.022376156249279105515
0.022362400467471073295
0.022332920905699472913
0.028647468939181460618
0.028785537752664919903
0.02890807934936390905
0.029018676396169649362
0.029122466177592048336
0.029224638399374149034
0.029330701573523895731
0.029446721386976515422
0.029576294616449318176
0.029722118598045986493
0.029885646518354583301
0.030064165802473254846
0.030254661154921706073
0.030452475261782036703
0.030651128029744855591
0.030846864301144773929
0.031033318212338647374
0.031205581717734316022
0.031362103058387783006
0.031499850424544430239
0.031615811312042114978
0.03171024645645040968
0.031784233770188408119
0.031839576633996502508
0.031878743761816624724
0.031903613488433464618
0.031920347700588928841
0.023631069462713313184
0.023600160977017316244
0.023574219875266359814
0.02354314459412340868
0.023518098008984595487
0.023485799307865790064
0.023461026770522169782
0.023427539477116326311
0.023402123590839849637
0.023368099750275036358
0.0233420594318432921
0.023308057805340273716
0.023282754677962886475
0.023247969813887679746
0.023224412442360641007
0.02318908408807770008
0.023164244925796960428
0.029435818509632435958
0.029575742330137513164
0.029687298811665076281
0.029776643705695177849
0.029852256081133229232
0.029924225907082060982
0.030001991837749073661
0.030093144595940934244
0.030203532113570154966
0.030334899995803677603
0.030488758693860824184
0.030662321604095762323
0.030851748842052668931
0.031049123041236175585
0.031249555614650651597
0.031445443808042296274
0.031630178984045478896
0.03179998902636059499
0.031950757363346474205
0.032080094183686673481
0.032187503522318049176
0.032271741929718600339
0.032334497177535496959
0.03237756277292738738
0.032404878279397225649
0.032420333682070048842
0.032429428099020093934
0.023580580842522982227
0.023553069499903264011
0.023502675265856812908
0.023475965668424973037
0.023424747800662105296
0.023397964841136549563
0.023345561270867752623
0.023318062168869585493
0.023265041210337254751
0.023236751003548872935
0.023182706175968376128
0.023154911171670972819
0.02310025559200281145
0.023072851832755474077
0.023003552981334021016
0.023010346905983913857
0.023745097075755002697
0.023917891123791515384
0.024040056738906190326
0.024120705899524433335
0.024174388042535244203
0.024218016561960046401
0.024265199384280643213
0.024327961422800640362
0.024413978491474360583
0.024527145974415232726
0.02466836539218072652
0.024833723324158129414
0.025014610620632538041
0.025201652084549688165
0.025386522555956043262
0.025561330681575882701
0.025720241364444462046
0.025860314153495475575
0.025978446085796573495
0.026075254409600234773
0.026150466153010986509
0.02620622152202261787
0.026245366873138973457
0.026271026142316532964
0.026286827349059765924
0.026297091612468959099
0.026303712004195831109
0.026309229132843631876
0.018799040965431178946
0.018759755638569932529
0.018738483921271441301
0.018698926075195923535
0.018678018716153932388
0.018638071390240894265
0.018617037692282300404
0.018576935305615077665
0.01855553188301502579
0.018515030866357445882
0.018493886980038353601
0.018452832584324254522
0.01843217934886351439
0.018379965022270183805
0.018395273270838313762
0.022395530555583603727
0.022482436709019466142
0.022540457047412046365
0.022580116592937814202
0.022612794656641500152
0.022650293286139631249
0.022701357705984581692
0.022774011360623701294
0.0228732367409537167
0.022999908228604582644
0.023150224670652572168
0.023319639554089551664
0.023501044835010757167
0.023685924770676748674
0.023866519616964867317
0.024036208679093069851
0.02418786920998838505
0.024318874662120334995
0.024425638228937555929
0.02450729996827960902
0.024564969809024332636
0.024602387133154171583
0.02462373515236205429
0.024634367802001195386
0.024639161636711145315
0.024640748392234901321
0.02464046582521589937
0.017736720719485701142
0.017720017686380953176
0.017688297181883558956
0.017671792930290138729
0.017639503128289251571
0.017622788461352081879
0.017590075846521797259
0.017572718234583135227
0.017539375347738909994
0.017521772077218996516
0.017487648557509533065
0.017470331669529371582
0.017428869921509083929
0.017423993911345071056
0.021582581864368916708
0.021643754757945533884
0.021693738066130452413
0.021740733393311579419
0.021793370411538611625
0.021857522966354916982
0.021937761731711736407
0.022037132918214956401
0.022156378966611746384
0.022293674415686252216
0.022443816935499759369
0.02260150402608387607
0.022760921879263117107
0.02291542976681087973
0.023060146154072414665
0.023190572970035405742
0.023303039451841141977
0.023396008552691680005
0.023469298031517569353
0.023523918914684895098
0.02356261408911480143
0.023588444483656035439
0.023604272935015060964
0.023613058388927354869
0.023617244782807241682
0.023618823939375244853
0.017093961149307550229
0.01706405748757742688
0.01704873963444119081
0.017018356441776578969
0.017002702035966394539
0.016971658445197847914
0.016955219657824444762
0.016923362909663449555
0.016906382120953935416
0.016873755829325359085
0.016857049178277270368
0.016818450147058582739
0.016811580838827791529
0.020758723774527598066
0.020814365289574136841
0.02086746217283412877
0.020925112377611642528
0.020992451033735030907
0.02107316927046321009
0.021171310006578753643
0.02128734723659956446
0.021419569351486332509
0.021564304207064160374
0.021717436366509915852
0.021873524383432940005
0.022026782380825889879
0.022172115973721304161
0.022305592317076104042
0.022421655126570315397
0.022519170636785015155
0.022597006260804724381
0.022655793431427428963
0.022698221525082384886
0.022727263579757881612
0.022745028868336257533
0.022754580298339495414
0.022758634501551588264
0.022759383035241817494
0.016414009785258774909
0.0163988967640889792
0.016369437290386572997
0.016354143214842326026
0.016323936386828188233
0.016307805231874670376
0.016276459845458054326
0.016259581025603628973
0.016227621978840166272
0.016211168068025003791
0.016173491305861466272
0.016166958158042834398
0.020113128114037311794
0.020166352890529117697
0.020223377288706705091
0.020289883892795117226
0.020371093769095516279
0.020469441440147617683
0.020585695437301671645
0.020718219294123641633
0.020864214630329998984
0.021018547002790773093
0.021175487148250134173
0.021329828659642221383
0.021475076571093903999
0.021605346606108462998
0.021717741211107439298
0.021807944355622076171
0.021875715502803001061
0.02192305612745931373
0.021953319640595502643
0.021970339121468011184
0.021979085671290449211
0.021982541478560786025
0.021982955430274321584
0.021981118591075744784
0.019407242762752033305
0.019463511299478954836
0.019529303911219715595
0.019608520774521617791
0.019703588653157765032
0.019814341026721974531
0.019938809622105483493
0.020073299671535548699
0.020213660406548903531
0.020354842762388556526
0.020492057748996431871
0.020620732887466668853
0.020736658066813191958
0.020836254787098589664
0.020918927558401228389
0.020983046246743547458
0.021030580039890153787
0.021063991218058859822
0.021086112046445070617
0.021098964131087919599
0.021105510175535548839
0.021107415478735760267
0.021106998372909552275
0.018919816285084944257
0.018986092018087007138
0.019064538095357474318
0.019155329492010778059
0.019256844017554827775
0.019366384145177328868
0.019481411288026630885
0.019599360652101573826
0.019717041288688664374
0.019831565841567672104
0.019939775393027554806
0.020038552749884072646
0.020125111667518017639
0.020198685747967865672
0.020257344580076577095
0.020302157763168245108
0.020334332676132577111
0.020355515348803952108
0.020366998666686241676
0.0203717850123310458
0.020372294473422876415
0.018407779160409247499
0.01850871222443584152
0.018618806470853874885
0.018734010942964087615
0.018850638369659521165
0.018964880769865254811
0.019073081261521653701
0.019171652020699928715
0.019257891304392711629
0.019330721738459143155
0.019389541691703517101
0.019434293470637468287
0.019466858610599442614
0.019488873070883483418
0.019501979439833783125
0.019507897906251958631
0.019510054701118467735
0.018230606280618063403
0.018345811541407242018
0.018455272933770371785
0.018555016195463215622
0.018642724523904481704
0.018715664158280229112
0.018772454986732411975
0.018814307851958349954
0.018842620591533666696
0.018859633917321639435
0.01886802184055802814
0.018871162424432562366
0.018871254369208674551
0.017675207922334127547
0.017763818467287254693
0.017838596531909552828
0.017897725201059117017
0.017941855032157207062
0.017972047366666531881
0.017990593782560418412
0.01800012634880739093
0.018004136773443941283
0.018004993538604751463
0.018004728913067712809
0.018003507242325227783
0.011079737042777605335
0.010182642102142541382
0.0094605591517892100029
0.0090197593767520484187
0.008816835900945120888
0.0087653222597111040554
0.0087757792203252259905
0.0088760908470781017809
0.0093144462805422757051
0.010036956318335555488
0.010503584274088539896
0.010718863632847379017
0.010770721680316185792
0.010759790417220919251
0.010664093443513359208
0.010329459590050068737
0.0099934733299995772565
0.0098101297480323434302
0.0097419130700235681553
0.0097359243864748850478
0.022920611370098056825
0.022552067567559317546
0.021110750332010010805
0.019177877692681779415
0.017899650330221960476
0.01724854238868139128
0.017039029443709018119
0.017036235736640575195
0.017177004139711869735
0.017884861144966703733
0.019253321612170117005
0.020138131751941960174
0.020529270984649003462
0.020607048363647417072
0.020569517319330012789
0.020317868111054480929
0.019477021662388037393
0.01863129349430832013
0.018135384306800339527
0.017914610167034283189
0.017865473780636922929
0.017875696101083575484
0.060552413770661735193
0.060369717004728838672
0.059520245530771828668
0.056854665025788134192
0.053794765738493441343
0.051704377678050729428
0.050674138044427372018
0.050376547701661174294
0.050414935574594359202
0.050699792161019385794
0.051916471534786290398
0.053988677092440630345
0.055229189823286957417
0.05571381115941233253
0.0557373918035634075
0.055611200252332119998
0.055042677301956506597
0.053288388974713510327
0.051513893735841309596
0.050435441660652509388
0.049950472218637596844
0.049869805975860194425
0.04990694621787846591
0.050079491291011100917
0.050607362462397165181
0.051176597677473047165
0.29255028457572024303
0.2903877194978143339
0.28353894619471642358
0.2759168706028922724
0.27099705405575735817
0.26879575892340973331
0.26850919594922945111
0.26904366469964863251
0.27148058862283269699
0.27877208248997975559
0.286198969390955682
0.29036340907738356076
0.29173787289671926359
0.29152411072221384725
0.29052010944830902739
0.28716281440350860388
0.28009141785661217927
0.27475275179372560252
0.27179821454254154967
0.27096092616647032836
0.27098957816441537894
0.27167325616894177909
0.27427825750197371013
0.27831617237899475281
0.28112872751359396783
0.28257891339252871887
0.28305418871211057708
0.2831062251322854495
1.5022430331285279159
1.4879616885567239493
1.4758808266006797627
1.4678120736038495764
1.4638094231612519547
1.4634286330339008053
1.4647887512864337101
1.47124588564449299
1.4866187767649139406
1.4989969958322000299
1.506238567529452288
1.5086065917142970072
1.5081284799626091253
1.5052802973892795979
1.4959750378197673726
1.4798959355335115085
1.4665468032255934983
1.457314673624815482
1.4521419131440611583
1.4507358575798645628
1.4507677761613746448
1.4524391830488696531
1.4564539614599099071
1.4591978049068994316
1.4605132336982002972
1.46080655218114841
1.4601174266654042277
1.4565543649023051653
1.4500495276854079574
1.4436439751093779194
3.942566717219532002
3.923322129722548457
3.9080106661193254602
3.8972090542079977915
3.8906774547492122274
3.8877064104979290882
3.8864146396429881669
3.8848600384120723916
3.8810030695054100747
3.8730418839960440991
3.8611856313249770523
3.8461549514629145285
3.829471723138893946
3.8127625309217525462
3.7974053271173806579
3.7843637163375154486
3.7740077299776007003
3.7661088664108151036
3.7598656820377911458
3.7542669248791380454
3.7483760951003106676
3.7415677528161790377
3.7335213171069834281
3.7242459976319990389
3.7140791658891716409
3.7035822553534729629
3.6932338254846910353
3.6834133960344903613
3.6741884338873749272
3.6654971040766772816
3.6571598363205382043
3.649070942657156813
6.1776520334324320771
6.1586814501908957453
6.1403475548173362952
6.1226726311313095508
6.1059248812469970602
6.0903019445521540121
6.0756017306937417644
6.0611936367532139869
6.0463771006018482979
6.0307812394382702692
6.0146059440573669264
5.9984288992297960519
5.9828398738062729123
5.9682097778145921652
5.9546028749841370953
5.9418256320450995034
5.9295593896524438904
5.9174912996721529268
5.9054507160592839554
5.8934543843671471919
5.8815625426580160351
5.869777772471643118
5.8579876762450489025
5.8461041053650957267
5.8341345813881329008
5.8222854277450242222
5.8107557522751287493
5.799653995077824753
5.7887410331621040882
5.7777873252628584311
5.7666077592813858033
5.7555224478021589363
5.7446706617721554622
10.194502939523175655
10.098311633932713249
10.003232558098758886
9.9108086839056692696
9.8217860103334313493
9.7365057389172342539
7.7543742075936759051
7.7359482119457076976
7.7176633284650142386
7.6998256209802269368
7.6830719354433343327
7.6678537160517965532
7.6540483751422190295
7.6407930332725682021
7.6270571488549965267
7.6123284319125970043
7.5969218858963385443
7.5816642595869385701
7.5673143687211794628
7.5541866278872591423
7.5419980000737112391
7.5301407646766485016
7.5180303069073959321
7.5053893215832667707
7.4923047480954352295
7.4790448998875591613
7.4658425384620681342
7.4527324684790521303
7.4395230806950722879
7.4260229301237101751
7.4123075133599236608
7.3987366696221377182
7.3856909241346535566
7.3731932368746218032
7.360886443451249761
7.3483353692008375191
7.3355114274761774595
7.3227447112202543877
7.310624144399350044
7.2992376958128772912
10.047181633788476063
9.9435271013082147107
9.8413278436901272528
9.7464178951514046645
9.6607756341747137441
9.5826554630766835885
9.5091834809854418609
7.8779067303435388325
7.8687740497706641918
7.8623998460366770757
7.859596329066422804
7.8601714441690422319
7.8624287809655069026
7.8635729022344342809
7.8611086668382483822
7.8542110544590073573
7.8443848982190589325
7.8340324248058577083
7.8249528612514582804
7.8173799699048913681
7.8102226243963963626
7.8019428821290714993
7.7915057472260809135
7.7788642010612774058
7.7648019828780565632
7.750285005341346789
7.7359197801893513358
7.7217000626457306112
7.7072794789161296336
7.6925225179591301128
7.6778656169802683706
7.6641254498220297009
7.6519186199467812415
7.6411260031218972699
7.6309255834885290071
7.6205608860368858615
7.6101501570812377651
7.6005970006221694746
7.5927521801215904773
7.5865700811071707932
7.5810480225736283089
7.5751026537140804251
1.3424744225034243211e-06
1.348877960506837838e-06
1.3561526738138118773e-06
1.3670916535667856468e-06
1.3745957509033214387e-06
1.3802298838892901679e-06
1.3913210265492370841e-06
1.3982740015175071089e-06
1.4061780698566212998e-06
1.4152046919468561935e-06
1.4359889253801183709e-06
6.6831845863107297297e-05
6.6816431544440771785e-05
6.6787690730960963233e-05
6.6767811114399258231e-05
6.6753141436792876604e-05
6.6748566981791328961e-05
6.6753333913143326995e-05
6.6761648890849208679e-05
6.6757833487848073717e-05
6.6735103040666891015e-05
6.6617341844826265967e-05
6.6254822686175198583e-05
6.582205593275478701e-05
6.5413685262007056085e-05
6.5028082083265194508e-05
6.4679010502997270784e-05
6.4373727308283235473e-05
6.41089949992023375e-05
6.3878807916101085955e-05
6.3683612885248811332e-05
6.3524517774950542935e-05
6.3402952732084346863e-05
6.332114331480025247e-05
6.3266842720175570872e-05
6.3226993671063638465e-05
6.3185899178729614998e-05
6.3115677353608554026e-05
6.296971278192346332e-05
6.2616522894719248214e-05
6.1630812953223474641e-05
5.8630108909509150291e-05
5.3285254924974795104e-05
4.7843151390601602272e-05
4.2619302793493199987e-05
3.7609135456172949213e-05
3.3002333636360434957e-05
1.3363118561461877643e-06
1.3450783423369387403e-06
1.3525033717939517419e-06
1.3582060485232119286e-06
1.3652294911786909272e-06
1.37010222502677952e-06
1.3761672385430364292e-06
1.38236776142649987e-06
1.3884899979140092751e-06
1.3951913480918627954e-06
1.4036115173867096666e-06
1.4097429663452872984e-06
1.4159366209452014518e-06
1.4256300796656428633e-06
1.4314213422242006081e-06
1.4369791715860639003e-06
1.4473855236478408723e-06
1.4519690508911631447e-06
1.4599909824254423103e-06
1.467809270785968977e-06
1.4855359191918207415e-06
6.5774243332285213374e-05
6.5849002423059880217e-05
6.6084783583492362306e-05
6.6437878987966316954e-05
6.671338480499094145e-05
6.6890800380662657687e-05
6.6982138426976021365e-05
6.7011928657494327223e-05
6.700450042134552676e-05
6.6950222811540174568e-05
6.6715850712770709469e-05
6.6353948989800418004e-05
6.6078186841875765517e-05
6.5881977323148775845e-05
6.5757194793637031892e-05
6.5683267815230727475e-05
6.5645844050734510088e-05
6.5638435993430253282e-05
6.5648509730368651157e-05
6.5702474069928253802e-05
6.587662470101001463e-05
6.6050919438763913802e-05
6.6155793313384038835e-05
6.6206513476342522973e-05
6.6217232682370786938e-05
6.6209187960885966789e-05
6.6190881758470263615e-05
6.6137249341176985269e-05
6.5949620987957143425e-05
6.5327731005802229351e-05
6.3320461304752653862e-05
5.7993406619839461987e-05
5.1708026301800107181e-05
4.5788916779992635837e-05
4.0186797922153451269e-05
3.5092533364754477843e-05
1.4002212850284043799e-06
1.4085718721420107719e-06
1.41470971006804221e-06
1.4207728404579383722e-06
1.4263742539626990045e-06
1.4306841550996597075e-06
1.4375014308095442223e-06
1.4436359675232054323e-06
1.4510440906897249682e-06
1.4579976296720450803e-06
1.4666592370195199972e-06
1.4733827610575579919e-06
1.4782507777773648628e-06
1.4860650339629669293e-06
1.490860612425249338e-06
1.4961480363754849769e-06
1.5058327840184534256e-06
1.5096876189048902766e-06
1.5180460505293505761e-06
1.5251735637022887268e-06
1.5395326410159413391e-06
6.894109333244928875e-05
6.9197027288429404962e-05
6.9357049898480170841e-05
6.944602555531090445e-05
6.9465390991866568819e-05
6.9448631174868938158e-05
6.9376261115231305883e-05
6.9123307900864942258e-05
6.8666464752380659809e-05
6.8300845832409355207e-05
6.8036756470357312768e-05
6.7850994020024043489e-05
6.7711249420429964001e-05
6.7619500699142036826e-05
6.7554591790938922852e-05
6.7516442353450495514e-05
6.7497434687938036866e-05
6.7499877806538027673e-05
6.7521964037157115998e-05
6.7615167171374964349e-05
6.7833611136463632207e-05
6.8006009384120256729e-05
6.8105757896473240643e-05
6.8147112928896780488e-05
6.8153966057679933707e-05
6.8146343340672483344e-05
6.8124460211598010669e-05
6.8019769750331685672e-05
6.762183385747443814e-05
6.6289745614166344155e-05
6.2068174642378442368e-05
5.5447168007193910904e-05
4.9013154742742843432e-05
4.3065121122318719595e-05
1.4701945784440855519e-06
1.4749372193766942603e-06
1.4800177640123991621e-06
1.4842284980566586172e-06
1.4888017578509512801e-06
1.4954663666654526776e-06
1.5015391141432249595e-06
1.5099538048689190871e-06