/*--------------------------------*- C++ -*----------------------------------*\
  =========                 |
  \\      /  F ield         | OpenFOAM: The Open Source CFD Toolbox
   \\    /   O peration     | Website:  https://openfoam.org
    \\  /    A nd           | Version:  12
     \\/     M anipulation  |
\*---------------------------------------------------------------------------*/
FoamFile
{
    format      ascii;
    class       volScalarField;
    location    "0.006";
    object      p;
}
// * * * * * * * * * * * * * * * * * * * * * * * * * * * * * * * * * * * * * //

dimensions      [1 -1 -2 0 0 0 0];

internalField   nonuniform List<scalar> 
106891
(
98993.334832293810905
98984.195841197608388
98975.57731231325306
98969.230184429819928
98966.375189182726899
98967.46366911730729
98972.280735191030544
98979.961778927376145
98989.198433540135738
98998.166113842395134
99005.479870579132694
98953.481437927242951
98946.444034173808177
98947.171216188042308
98960.753361612732988
98985.927110616976279
99014.084640307206428
99034.508495670248521
99040.801941852405434
99033.914453718753066
99020.641270592343062
99007.89657935660216
98998.318099914700724
98989.766749285743572
98978.433394357343786
98962.348631038810709
98943.579568779488909
98926.648898974584881
98915.660467877605697
98912.940313337123371
98918.346221653235261
98930.053300796105759
98945.089363119375776
98959.91075979587913
98971.194477156372159
98976.839265619084472
98976.816450184996938
98973.755069619626738
98971.712007094727596
98973.47205040177505
98978.113874833055888
98980.646261803805828
98975.064902905578492
98958.883812636107905
98936.055053294374375
98915.383085153996944
98905.524816958117299
98909.929246958723525
98924.752778583249892
98970.998809789889492
98976.876514624920674
98982.883253046486061
98988.47101515486429
98992.837150603139889
98995.125486766351969
98994.645522689403151
98991.031101068903808
98984.469720421780949
98975.8059551755141
98966.338917397573823
98957.508685460605193
98950.712828120143968
98947.109081149261328
98947.315856738146977
98951.313796766160522
98958.396538054803386
98967.433153523059445
98976.674676868089591
98984.7084280764102
98950.824565744231222
98956.124818847252754
98971.483228358527413
98994.769139345458825
99018.71494510085904
99034.868077505394467
99038.737597603118047
99032.589687365631107
99022.307258780390839
99013.238430412966409
99006.873189081859891
99000.603030168625992
98991.073337084962986
98976.832110161325545
98960.079516536934534
98945.504808504178072
98937.082262089825235
98936.286980383272748
98942.018760821680189
98951.667375597884529
98962.507842676597647
98972.264311173814349
98979.717798987825518
98984.811128864763305
98988.645125832801568
98993.417189608691842
99001.271430147913634
99012.447607351496117
99023.823228034976637
99029.66804884186422
99024.862190679603373
99008.201170049098437
98984.047731818762259
98960.77093821579183
98946.467493032003404
98944.543135988453287
98967.209731592869502
98973.27024595097464
98977.753546376159647
98980.360746101927361
98980.84870703429624
98979.086557761154836
98975.090569083913579
98969.019873013501638
98961.171400665101828
98952.053574949066387
98942.464552750432631
98933.416716362029547
98925.979188918005093
98921.147062118499889
98919.659765978489304
98921.845806549928966
98927.43055751088832
98935.723917871815502
98945.282787276693853
98954.683776117090019
98950.28735155085451
98960.259173970160191
98977.172997983041569
98998.252216483117081
99017.364635792546324
99029.321413160607335
99032.854465744661866
99030.570350563153625
99026.502394767288934
99023.45101673847239
99021.107660766690969
99016.483959998498904
99006.980993068791577
98992.935938782131416
98977.828903276007622
98966.536695486021927
98962.137932919475134
98964.424717601374141
98970.597386378605734
98976.986322676792042
98981.264336614825879
98983.45486793044256
98985.299621763973846
98989.225959710747702
98997.537721861357568
99011.344043400080409
99030.160808378364891
99051.144399725395488
99069.207222392768017
99078.515974702429958
99074.880888689673156
99058.166931647443562
99033.11538531750557
99007.397637121772277
98988.214444456927595
98979.246196498104837
98964.03504935032106
98966.383255982276751
98965.565548457685509
98961.986228305351688
98956.257239759957884
98949.03578427474713
98940.86557038508181
98932.076784902325016
98922.834776605566731
98913.328306795170647
98903.954246745895944
98895.400540213944623
98888.597561058442807
98884.536205839758622
98884.049224612943362
98887.44566127465805
98894.532285388020682
98904.200362548464909
98915.112681585364044
98959.758685142616741
98976.872488002074533
98994.16898646223126
99008.14670692558866
99017.383495495494572
99023.031129441471421
99027.39477825796348
99032.290429229906294
99037.193976385009591
99039.578858086810214
99036.348494313337142
99026.542356899371953
99012.443243971923948
98998.81404625873256
98990.26845346292248
98989.041215527540771
98993.470042942062719
98998.823424774309387
99000.806164196241298
98998.402662031643558
98993.863134683750104
98991.291697043125168
98995.07585347238637
99007.970098658115603
99029.863613530615112
99058.015389756925288
99087.167936179263052
99110.745316399668809
99122.741236994072096
99119.80700222827727
99102.882723573697149
99077.178509757854044
99049.909090183762601
99027.357714001031127
98942.693147159647197
98946.689397915906738
98946.517107972962549
98942.552979603817221
98935.727525127964327
98927.202281805613893
98918.011291624963633
98908.810034453941626
98899.77378659331589
98890.687038747841143
98881.220897983337636
98871.268752907359158
98861.205042916815728
98851.950045952762594
98844.79907316614117
98841.140872851625318
98841.923688766706618
98847.498143318938673
98857.088529465880129
98869.376216258315253
98956.700191934403847
98972.527176058210898
98985.052794462360907
98993.852416227862705
99001.140136211557547
99010.012262215750525
99022.262456090087653
99036.998102518584346
99050.697680046534515
99058.817009730861173
99058.305983226702665
99049.807350636925548
99036.813970486720791
99024.198989063064801
99016.66620185886859
99015.637413157252013
99018.420697001507506
99020.512967862858204
99018.669287418902968
99012.681584883161122
99005.728752400027588
99002.708030319117825
99008.10887486829597
99024.330387863214128
99050.78041422906972
99083.543445129296742
99116.30403829869465
99141.963352270991891
99154.720111216098303
99152.08939955412643
99135.90567284518329
99111.460823469067691
99085.163977968593827
98920.163160550277098
98917.496007839610684
98911.553555938589852
98903.443569591152482
98894.424487065523863
98885.463425395209924
98876.952437094529159
98868.689430303129484
98860.06307634327095
98850.414187191650853
98839.447896306286566
98827.534647531501832
98815.769972361595137
98805.75239541650808
98799.237841415320872
98797.552672472011182
98801.430061726467102
98810.448928854253609
98823.400152108180919
98969.795526556146797
98976.728611619560979
98980.565891469756025
98986.087488009987283
98997.547788747862796
99015.934609521485982
99038.69323655073822
99060.53681154451624
99075.595504596058163
99080.635722269798862
99075.720266874021036
99064.262712628900772
99051.794140002763015
99042.336980058345944
99037.030412074265769
99034.631989943227381
99032.724949968920555
99029.441680072894087
99025.116104913176969
99022.174738605302991
99023.669691204966512
99032.331047328319983
99049.607460517479922
99074.702454543061322
99104.467054375520092
99133.856524974733475
99156.828373098760494
99168.376028283193591
99166.655370161664905
99153.665833020859282
99134.094957091292599
99113.319445516928681
98883.878684878218337
98879.768024147095275
98873.955663729779189
98867.382409586833091
98860.877245268085971
98854.84915682990686
98849.103534865338588
98842.939361912940512
98835.450384793992271
98825.898684328174568
98814.080050531774759
98800.576157526142197
98786.763494326223736
98774.549059804616263
98765.979932923422894
98762.599615714658285
98765.264244130114093
98773.663330039038556
98786.603793268150184
98976.168335228750948
98975.140510135053773
98978.791342442695168
98990.83892844201182
99011.731723454111489
99038.307466850048513
99065.389636118183262
99086.811637628692552
99098.189897881034994
99097.901937644201098
99088.548697517166147
99075.05307535501197
99061.742271207724116
99051.232113051300985
99044.406305058844737
99041.028358188690618
99040.559726915234933
99042.667803492615349
99047.319166645116638
99054.872133696597302
99065.475891593086999
99079.209632979836897
99096.364942548490944
99116.287520313067944
99136.425719154940452
99152.925353093800368
99162.318071791058173
99163.25092913658591
99157.301981598997372
99148.05605742042826
98835.053707159866462
98831.77060485475522
98829.317207507861895
98827.76413746693288
98826.688113007287029
98825.214564447334851
98822.224620221342775
98816.714067394364974
98808.160168733593309
98796.727085340724443
98783.320056609300082
98769.515119866104214
98757.284717543094303
98748.636135336069856
98745.022475695193862
98747.214203112074756
98754.910287478676764
98766.953459486423526
98982.635106638495927
98983.362234814281692
98992.537641019909643
99010.896923945198068
99036.389751929134945
99064.708802841239958
99090.057651099254144
99105.986891372594982
99109.40756502863951
99101.924111085041659
99088.446400472195819
99074.481287017610157
99063.834079690044746
99058.274238127589342
99057.726272925996454
99061.29437069814594
99068.142373603215674
99077.176676743591088
99086.971061810938409
99096.362662759041996
99104.943008999092854
99113.152730118119507
99121.694005953730084
99130.569161973602604
99138.809891600409173
99145.419248580554267
99150.202642783406191
99154.032822376524564
98789.284783234761562
98789.969684151874389
98792.793042596924352
98797.026221790147247
98801.442856422116165
98804.607601891781087
98805.211630156016327
98802.363651217980077
98795.86381811487081
98786.304730517251301
98774.953058841783786
98763.523476363901864
98753.866032712976448
98747.647113599159638
98745.863764855675981
98748.849788515930413
98756.067497046795324
98766.299227220690227
99003.611945195676526
99007.695541628971114
99018.981078624216025
99037.970173017296474
99062.526038475189125
99086.725078826129902
99103.977030490219477
99109.521567535339273
99104.685415218162234
99094.884040564036695
99086.284992440327187
99082.816588669869816
99084.561749763495754
99089.372137679369189
99094.968594437013962
99100.424302543149679
99106.423592979452224
99113.378253433067584
99120.284238148771692
99125.515854421275435
99128.203832121493178
99128.468588812014787
99127.688766852850677
99127.822829039898352
99130.533378147883923
99137.230604148411658
99148.442828729879693
98755.977482967689866
98763.105257591494592
98771.761180651606992
98780.381616386235692
98787.367640171709354
98791.401969181286404
98791.771134009191883
98788.561896131097456
98782.630049131199485
98775.390062265010783
98768.49284012899443
98763.4452710509795
98761.306971196594532
98762.386542261316208
98766.39975960009906
98772.465975501210778
98779.339004427107284
99038.234927842742763
99034.843139867080026
99033.860869697542512
99037.515791490513948
99048.376994674792513
99065.736136980209267
99085.040774211593089
99099.411524237308186
99105.030804696769337
99102.832629848402576
99098.704664139833767
99098.885846637567738
99105.528533419943415
99115.958331843634369
99125.415744384532445
99131.100727815704886
99133.758707544926438
99136.000135061447509
99139.894468004480586
99145.062132733713952
99148.726544884921168
99147.76262368724565
99141.445591124109342
99132.288511757869856
99124.660387103896937
99122.524542065249989
99127.935182240689755
98743.155291537055746
98753.293250649774563
98763.733386673266068
98773.147658898073132
98780.487015596940182
98785.195385470622568
98787.326444427002571
98787.526914265661617
98786.823032615720876
98786.262304469113587
98786.573717014252907
98788.043047741652117
98790.428756685883855
98793.160548473359086
98795.392163357581012
98796.257634172870894
99067.094622897187946
99063.788567612820771
99060.240938227856532
99059.711351184058003
99065.811086232250091
99078.264064184011659
99092.736997134677949
99103.27452760739834
99106.905550202107406
99105.426519281361834
99103.957839037422673
99107.87565631493635
99118.997975031888927
99134.28675833340094
99148.495395310193999
99158.518160928520956
99164.808879581745714
99169.486422102025244
99173.790813950370648
99176.294254584208829
99174.184792222280521
99165.654338288979488
99152.143740572515526
99138.099046118019032
99128.404523384408094
99125.699702043901198
99129.595572504942538
99138.286596886100597
98742.87355473623029
98752.628707433919772
98762.760320074710762
98772.548670291755116
98781.414780420876923
98789.01761946118495
98795.282785166302347
98800.334534616020392
98804.331632571018417
98807.340578863717383
98809.297931778157363
98809.937500774220098
98808.905715071901795
98805.845939572842326
98800.661670715693617
99084.219961218288518
99077.441890175512526
99073.930576907980139
99077.45560695961467
99087.839836578496033
99100.55509730434278
99110.154952868935652
99113.666067571946769
99112.656342019632575
99111.920539015554823
99116.059427055864944
99126.650978134770412
99141.795103107884643
99158.213722887769109
99173.740170167642646
99187.464108901156578
99198.687096956302412
99205.2386041902937
99204.612587760828319
99195.211003227072069
99178.49933157817577
99159.420697675202973
99143.714096451512887
99135.225484970564139
99134.193154252090608
99137.611690829086001
99142.278786586670321
98746.416511151765008
98756.419612419354962
98767.680266513852985
98779.438504195859423
98790.82990604454244
98801.066225368937012
98809.51358521169459
98815.682819430483505
98819.215508874403895
98819.935310284068692
98817.771672352289897
98812.759147919452516
98805.105373041937128
98795.411086212538066
99090.537463773202035
99083.753549519708031
99084.926256986800581
99094.034302528452827
99106.553956304240273
99116.987376914985362
99122.167455430826521
99122.846638984163292
99122.7807102255465
99125.863321895012632
99133.742148768447805
99146.169498589413706
99162.744970972606097
99182.611155685182894
99203.514785798499361
99220.994756559986854
99229.850049437969574
99226.290160994234611
99210.539516203964013
99187.851624156784965
99165.985754011373501
99151.618965845074854
99146.979881051331176
99149.00131090231298
99151.991491758075426
99152.174899926118087
98754.578846232689102
98766.296351760058315
98779.489328943382134
98792.873288657341618
98805.076587052200921
98814.856148780178046
98821.224378718281514
98823.563595765866921
98821.709826518723276
98815.944685727416072
98806.883507018370437
98795.377449984152918
98782.565245671299635
99089.340726563896169
99088.003632077612565
99096.107479579979554
99109.272737631516065
99121.50332789454842
99129.133911698314478
99132.406924737559166
99134.267622563769692
99137.251413413512637
99142.908427521237172
99152.570022963132942
99167.576832424208988
99188.157234898055322
99211.571939558722079
99231.883254802232841
99241.793100507784402
99236.586581861076411
99217.857162579981377
99193.252253736296552
99172.653801402339013
99162.834978489001514
99163.747968581767054
99169.234132835641503
99171.673476751340786
99167.337488145873067
98769.245140083818114
98781.99901875089563
98795.024483127810527
98806.668647584068822
98815.343388062465237
98819.875041566119762
98819.682883102694177
98814.785177235375158
98805.757873281429056
98793.612074941833271
98779.65554993369733
98765.397964225878241
99088.025089383299928
99095.079110238599242
99108.71560177738138
99122.798181509875576
99133.361429985176073
99139.853395924423239
99144.394549380405806
99149.053964981314493
99154.851096754035098
99163.069529978791252
99175.534027868270641
99193.119844058717717
99213.860924920169055
99232.197277335973922
99240.887850449609687
99235.400167376865284
99217.728229570580879
99196.140119257892366
99180.753563294012565
99177.319589935505064
99183.907595064578345
99192.42456669510284
99194.299696012836648
99186.356606927991379
99092.17305566126015
99106.202888666346553
99121.966081281687366
99135.105231188310427
99144.857357595989015
99152.756949241753318
99160.360319969797274
99168.070444798053359
99176.067125716042938
99185.33468229456048
99197.14324061156367
99211.138582257481175
99223.968328993534669
99230.296818781716865
99226.303688471321948
99213.417648232949432
99198.725787432922516
99190.685202521053725
99193.596406669632415
99204.449976263014833
99214.786089458983042
99216.250923953499296
99206.42250245755713
99120.464521682413761
99136.037540661491221
99148.847887418378377
99160.091723335703136
99170.744845234861714
99180.530642567347968
99188.420969838203746
99194.058759463965544
99198.97600985468307
99204.961362878471846
99211.528426007702365
99215.701441399520263
99214.762883854637039
99209.103107985269162
99203.055156023576274
99202.473233732191147
99209.984638807392912
99222.608824092880241
99232.930881526772282
99234.053943501465255
99224.34856040518207
99180.14265196287306
99190.881402060113032
99197.293939317183685
99198.822019724670099
99197.695785453775898
99197.095695211319253
99198.890602747153025
99202.514596495049773
99205.929633791500237
99208.150343945977511
99210.411482963085291
99215.539165899594082
99225.001351444429019
99236.600493574049324
99245.066805504669901
99245.796775047725532
99237.889812053443165
99193.324663420557044
99188.677392322046217
99188.736920543233282
99194.108346044886275
99202.673552194828517
99211.862270529542002
99220.558650604172726
99229.00161685430794
99237.772546624255483
99245.91746013352531
99251.122335794570972
99251.287546978899627
99246.072919938116684
99181.340248467880883
99182.621107539365767
99191.325879344993155
99204.897776769401389
99219.42656984248606
99231.985990026500076
99241.295727235265076
99247.417136545700487
99250.861424327304121
99252.193462583978544
99251.539486334571848
99249.108713592533604
99083.890099187527085
99120.187942199001554
99149.577849887456978
99167.851653699850431
99177.188856807508273
99181.884741579793626
99185.525810305887717
99188.665157497249311
99190.982210643021972
99193.445786104741273
99198.328320400047232
99207.012497565490776
99217.538249857578194
99224.574239796900656
99223.059690810216125
99213.240316356939729
99199.495513289482915
99187.395757115053129
99179.272565459148609
99174.008883136775694
99037.452183119443362
99071.639137239384581
99110.738944461743813
99141.855506559280911
99159.391386073126341
99165.983043165426352
99169.274395366854151
99174.798621399473632
99183.687094017965137
99194.046253063061158
99203.695430361971376
99212.392340302714729
99221.013118497488904
99228.90630496457743
99233.468388618915924
99231.449512784136459
99222.21466882310051
99208.473048503292375
99193.750553762089112
99180.941901375874295
99171.024324483165401
99163.448863574943971
99024.540872123834561
99011.436362945169094
99025.012567202851642
99060.379570431425236
99102.378979775807238
99135.121462996714399
99151.50020218618738
99155.485701850586338
99156.974163390288595
99164.068577166704927
99178.439858899699175
99196.412731648684712
99213.194617553832359
99225.702291918365518
99234.08691429317696
99239.222850360602024
99241.120804651072831
99238.562122977265972
99230.19170862113242
99216.60342425131239
99199.831608465334284
99182.714732363034273
99168.409720956755336
99158.383397477547987
99151.599907547759358
99143.777476829724037
99060.812145477335434
99021.159782722199452
99002.333881707876571
99013.805471038911492
99050.369475472049089
99095.280240004867665
99129.498132309439825
99144.678711217144155
99145.858418799907668
99145.481148980703438
99153.810827271503513
99173.102811926801223
99198.430289172858465
99221.735357616809779
99237.792184256933979
99245.820425637197332
99248.354087542611524
99247.520387088166899
99244.26044664492656
99236.899125110197929
99223.804664628827595
99205.369357051764382
99184.461535742797423
99166.053209137025988
99154.038659861180349
99147.055119584081694
99139.542954805481713
99127.031726481436635
99113.498777364220587
99062.721945861107088
99018.044816933921538
98994.600306414911756
99003.621816616403521
99041.747329494173755
99089.535706224589376
99125.296531041181879
99139.166865347040584
99137.496650966117159
99135.231180490474799
99144.402165727587999
99168.14911075134296
99199.850957562070107
99229.361960951733636
99248.48089009236719
99256.044368202550686
99255.91240365372505
99252.691469754558057
99248.930232884260477
99242.551795493447571
99230.116498613046133
99210.293564631370828
99185.958120666022296
99164.040599883490358
99150.291132677695714
99143.320179447284318
99136.286426803490031
99122.735936984186992
99103.31716097149183
99161.056597888949909
99117.962935099742026
99064.794701708306093
99015.410219412791776
98987.517772343882825
98995.306579875279567
99034.814470825862372
99085.2120589203696
99122.406813416499062
99135.023181863507489
99130.598853447532747
99126.341183057447779
99136.241020193789154
99163.650036032719072
99201.016138023362146
99235.663855604652781
99257.582853539322969
99264.679403363217716
99261.957035648418241
99256.658708824557834
99252.231636420081486
99246.948075727879768
99235.386164448151249
99214.456355013287975
99187.220311453536851
99162.36386586840672
99147.140057591459481
99140.681775328863296
99134.070094016555231
99119.345273122497019
99097.772817197590484
99078.881812028528657
99164.167447460524272
99121.715231039241189
99066.657216767373029
99012.71919707597408
98981.635610175202601
98988.219533523006248
99029.375452014341136
99082.292903583074803
99120.716379962264909
99132.232500726517173
99125.230621704788064
99119.243411612362252
99129.500226390780881
99159.964257103129057
99201.915632473072037
99240.756475537418737
99264.821398664222215
99271.481316645091283
99266.663778812420787
99259.519777110908763
99254.793649327184539
99250.306937308327178
99239.581919911142904
99217.763296738121426
99188.169924523943337
99160.860834248305764
99144.579586110034143
99138.61974374455167
99132.777500540702022
99117.064655996407964
99093.068353422859218
99072.608158571470995
99067.824849797121715
99219.166019793818123
99193.427435688921832
99136.008585850446252
99092.024134277322446
99080.602666527891415
99105.386235972240684
99166.450838535514777
99124.695635069234413
99067.805312525350018
99010.73926235944964
98977.203623946406879
98982.99155228381278
99025.569697769227787
99080.606913029710995
99119.865456267012632
99130.516475250653457
99121.639084339869441
99114.184916741607594
99124.683221182000125
99157.386623568178038
99202.720812032843241
99244.563432879920583
99270.097109753871337
99276.231704209858435
99269.875647076289169
99261.380086556804599
99256.431298615745618
99252.691590622795047
99242.489381984691136
99220.120069546610466
99188.793340395539417
99159.628554874172551
99142.722306359573849
99137.414403556002071
99132.121374637645204
99115.757330739681493
99089.881762471137336
99068.055216080203536
99063.417837608532864
99078.672957370552467
99178.254564745773678
99224.1727308400732
99196.259973800246371
99135.666223377600545
99089.232481649785768
99076.481029583097552
99101.694215500159771
99167.710215189290466
99126.243716639015474
99068.191795333332266
99009.468559553919476
98974.488966447199346
98980.279979209895828
99023.683245828913641
99079.994615431365673
99119.615109776845202
99129.756911482021678
99119.700215008459054
99111.318491468686261
99122.162729369811132
99156.051974259855342
99203.233351331131416
99246.68441564074601
99272.820893300304306
99278.692432994910632
99271.503547698870534
99262.23863758186053
99257.268694149548537
99254.011899296412594
99244.010589355282718
99221.373274893310736
99189.054728399700252
99158.871176312924945
99141.776780159707414
99136.928360607722425
99131.830530399136478
99115.207790233747801
99088.223940206953557
99065.555822352616815
99061.128798543155426
99077.321949032862904
99103.734944613752305
99018.068177584194927
99030.468000230015605
99038.586747256864328
99040.575449133641087
99035.607078003900824
99024.114470402651932
99007.741943486325908
98988.985612281903741
98970.792924926485284
98955.714239030843601
98945.996344487721217
98913.087836722683278
98928.720941681021941
98948.245038405948435
98963.176519571454264
98965.223998780114925
98952.617172639656928
98931.991965977402288
98914.269715717819054
98907.806179351915489
98913.323681054447661
98924.366423415165627
98931.90567804921011
98930.355993943536305
98919.214453625201713
98903.843132722307928
98890.008523553304258
98883.665639768878464
98888.554326351106283
98902.027015593528631
98919.707124428518
98936.691120219111326
98948.686446732797776
98952.829892099980498
98948.799490058576339
98939.112687900400488
98928.37570640539343
98921.329628785111709
98920.783130239884485
98926.150725339888595
98933.23072402102116
98936.158845198748168
98931.467356321460102
98921.010104744025739
98911.370916153027792
98909.415252101258375
98917.312801919208141
98922.911374836447067
98931.155644100595964
98939.993734859483084
98948.584430600589258
98956.516644730116241
98963.930554338134243
98971.385404841756099
98979.54138748080004
98988.769453608998447
98998.86270228306239
99008.884062747325515
99017.238868074535276
99021.949964795727283
99021.207130597584182
99014.040896886697738
99000.743713298725197
98982.860202235780889
98962.748366788568092
98943.230974622740177
98926.840016501329956
98915.962796564912423
98926.112343644039356
98942.456811155047035
98960.174478122105938
98970.722937972619548
98967.168928726518061
98949.68199313718651
98926.327812517891289
98907.896808120538481
98901.570294903765898
98906.780929241052945
98916.249376084218966
98921.700611154563376
98918.516322906885762
98908.387515832961071
98896.615096767694922
98890.335637089199736
98894.460745161573868
98909.040559425382526
98931.134826053035795
98955.141463929627207
98974.183899244657368
98982.7618149669579
98978.521766806254163
98962.829649363571662
98940.743142461156822
98919.718704105034703
98907.621256448022905
98908.806202635081718
98921.670270843998878
98939.34838531971036
98953.03137333758059
98956.914041319454554
98951.927848528081086
98944.938635543774581
98943.803947064559907
98951.381648820373812
98906.083799541156623
98918.178806288342457
98931.205221900221659
98943.772920225659618
98954.80182726723433
98963.837341522579663
98971.082607010379434
98977.200434490921907
98982.894936351585784
98988.450017689741799
98993.462222246511374
98996.899596787377959
98997.398030766969896
98993.623579780251021
98984.691411041480023
98970.565917920335778
98952.352768083277624
98932.083781152730808
98912.390117121467483
98895.66258407557325
98884.172055017610546
98959.138732069099206
98970.8852088276617
98974.36711969935277
98965.364318340361933
98945.741854068633984
98923.299478265354992
98907.024547953813453
98901.349750473018503
98904.418780235457234
98910.043335543465219
98912.150029781361809
98908.463614338543266
98901.848348367784638
98897.349758434065734
98899.962327809087583
98912.417385138469399
98934.131928648595931
98961.415102964194375
98987.724383484237478
99005.630176360922633
99009.342484385357238
98997.14075663551921
98972.112195840192726
98941.116513546628994
98913.48976502676669
98898.34863768312789
98900.574507571232971
98918.179925802498474
98943.070886501576751
98965.10261262091808
98977.462432618209277
98980.118913569123833
98978.859550826775376
98980.510849909682292
98902.898250684185768
98918.491682025138289
98933.625454298060504
98946.725714941581828
98956.822416127717588
98963.733569101881585
98967.940805629928946
98970.246891840666649
98971.353177539334865
98971.492611084060627
98970.290001555869821
98966.916691278544022
98960.442260800336953
98950.212927730026422
98936.116851483195205
98918.826242788578384
98899.733389847868239
98880.91102309996495
98864.451126439278596
98852.515634457799024
98976.978947173571214
98980.86651374262874
98976.502589267227449
98963.519464395809337
98945.192935746483272
98927.233540868473938
98914.299854524884722
98908.13793362143042
98906.154135621676687
98905.379403598752106
98903.420860125756008
98901.339656231022673
98901.913288919618935
98907.618169659748673
98919.820515870931558
98938.76048878407164
98963.274402343537076
98990.091415339964442
99013.764399909894564
99027.603786263294751
99026.192011819774052
99008.379277680563973
98978.340406380142667
98944.149137772154063
98915.349635250197025
98900.065256277521257
98902.218911379153724
98919.799576093253563
98945.888009038841119
98971.859509429472382
98991.612224899945431
99003.870975206111325
99011.223727903547115
99017.201972783834208
98883.198847571722581
98899.069813958820305
98914.678746322912048
98928.256173125017085
98938.574220077614882
98945.15353221676196
98948.232882892814814
98948.518916459433967
98946.838915894230013
98943.803783061506692
98939.583660178032005
98933.869282943138387
98926.061069083225448
98915.60754080498009
98902.317994028198882
98886.621845532252337
98869.455388968839543
98852.318418797207414
98836.825203365428024
98824.824018933344632
98991.838644680741709
98980.687045209793723
98966.589147118414985
98952.818727869234863
98940.822262962858076
98930.551008495865972
98920.900396540149814
98911.662208151756204
98902.944992277829442
98897.838779430196155
98900.075563413920463
98910.856444470075076
98928.463906500779558
98949.741281830225489
98972.213270004358492
98994.818368620501133
99016.282814314283314
99033.310872142785229
99040.813719730227604
99034.715137700681225
99014.651569624838885
98985.290681227255845
98954.666279118522652
98930.555323384076473
98918.096429080236703
98918.877214177482529
98931.390508308060816
98952.158488729633973
98976.925709347240627
99001.835957973453333
99023.960738647772814
99041.182745045953197
98872.293793134609587
98886.009737862012116
98898.278897115393193
98907.799265198846115
98913.910123089503031
98916.626897724563605
98916.471611704982934
98914.175744447362376
98910.392351486967527
98905.494027729844674
98899.476093799632508
98892.02297466598975
98882.715784076208365