/*--------------------------------*- C++ -*----------------------------------*\
  =========                 |
  \\      /  F ield         | OpenFOAM: The Open Source CFD Toolbox
   \\    /   O peration     | Website:  https://openfoam.org
    \\  /    A nd           | Version:  12
     \\/     M anipulation  |
\*---------------------------------------------------------------------------*/
FoamFile
{
    format      ascii;
    class       volScalarField;
    location    "0.006";
    object      p_0;
}
// * * * * * * * * * * * * * * * * * * * * * * * * * * * * * * * * * * * * * //

dimensions      [1 -1 -2 0 0 0 0];

internalField   nonuniform List<scalar> 
106891
(
98993.731771897670114
98984.566472601945861
98976.010892133694142
98969.802595443034079
98967.140896192795481
98968.441490442390204
98973.444009403479868
98981.244449642603286
98990.510961379943183
98999.412246946769301
99006.579038164010854
98952.979771941449144
98946.103722572064726
98947.216815248393686
98961.261116316134576
98986.697902545784018
99014.735048221933539
99034.718148619562271
99040.491652655866346
99033.268344143405557
99019.958812385477358
99007.36912223228137
98997.934463211771799
98989.379604339264915
98977.895128192423726
98961.636499719752464
98942.829159321903717
98926.037445562382345
98915.338467771667638
98912.97364825749537
98918.712948209489696
98930.659171227976913
98945.789370812097332
98960.537415489307023
98971.6117230484233
98976.985463600052753
98976.73941882152576
98973.608928532892605
98971.661516703679808
98973.583252455762704
98978.283835637252196
98980.65666154200153
98974.740740658759023
98958.254618565406417
98935.386128755140817
98915.031830950567382
98905.734220115322387
98910.684535322609008
98925.786093822622206
98971.883330927594216
98977.816533038479974
98983.862199743656674
98989.4420483490685
98993.737116047152085
98995.89435765442613
98995.248419866155018
98991.468017023536959
98984.770456084021134
98976.02325939599541
98966.544437535892939
98957.782774846520624
98951.12648517175694
98947.711093149540829
98948.126591480715433
98952.319739565282362
98959.548446342145326
98968.652778571908129
98977.867877300872351
98985.783679843734717
98950.812710907208384
98956.407726196237491
98972.076719412318198
98995.48080409958493
99019.240081105905119
99034.967851626774063
99038.403382947682985
99032.024878649579477
99021.754576316743623
99012.838844391604653
99006.577003326208796
99000.262324700132012
98990.562584984116256
98976.147529638896231
98959.359429261239711
98944.936492320281104
98936.790497188339941
98936.29376710683573
98942.257053835623083
98952.029501305194572
98962.878833358699922
98972.553627338202205
98979.8849552476604
98984.867999473848613
98988.663053909491282
98993.504394998293719
99001.50258904119255
99012.790131099929567
99024.110490249324357
99029.683618196795578
99024.473857898119604
99007.463561791024404
98983.209172814313206
98960.159441797135514
98946.314749940749607
98944.864370442475774
98968.127923313208157
98974.133661293803016
98978.543447090123664
98981.057789301354205
98981.432719994991203
98979.540454281392158
98975.406179735960905
98969.205673235293943
98961.255966116892523
98952.080739036464365
98942.48644307172799
98933.490671217339695
98926.164052987282048
98921.494092043329147
98920.202829333764385
98922.593337219281239
98928.359502220526338
98936.777112153562484
98946.375692840418196
98955.718962231068872
98950.568397917289985
98960.755398860404966
98977.835926337807905
98998.893084406241542
99017.761514422454638
99029.377123369151377
99032.636480323577416
99030.24361906919512
99026.218577672101674
99023.258019941145903
99020.916670259568491
99016.149647733313031
99006.438264198397519
98992.25034757614776
98977.170887929358287
98966.076440580916824
98961.93880547057779
98964.430612958036363
98970.678646948668757
98977.011721575297997
98981.182690167872352
98983.299460211521364
98985.154310772995814
98989.192130389477825
98997.698717021092307
99011.728297510489938
99030.721908098756103
99051.737714442060678
99069.623230300319847
99078.551322967585293
99074.436352125165286
99057.316478688604548
99032.092662336101057
99006.493264710530639
98987.653659675837844
98979.095645796391182
98964.778619297430851
98966.957247129947064
98965.974409320668201
98962.250222010130528
98956.402293211402139
98949.085105898135225
98940.836375249826233
98931.983785643271403
98922.69676678146061
98913.171767293315497
98903.814726942830021
98895.324066711880732
98888.638978470058646
98884.75032719601586
98884.476881904934999
98888.098956300251302
98895.382672141931835
98905.17598063359037
98916.10800429272058
98960.370882374671055
98977.510542987220106
98994.681817374381353
99008.446450415241998
99017.492199639964383
99023.051579831080744
99027.437693543339265
99032.388545101028285
99037.275595883489586
99039.511808546129032
99036.02406316192355
99025.972063657187391
99011.767713707318762
98998.216184765173239
98989.890830852367799
98988.898088359230314
98993.425897615466965
98998.679466245943331
99000.454145543990307
98997.876490357055445
98993.304378641070798
98990.88594543041836
98994.989383784151869
99008.269454246372334
99030.504498135531321
99058.849367109156447
99087.964485543605406
99111.252153649329557
99122.759248549162294
99119.26845166394196
99101.890571889816783
99075.970180049014743
99048.750937155127758
99026.457381737258402
98943.49834398283565
98947.266351794241928
98946.864159685908817
98942.700290834894986
98935.728334339655703
98927.113985544128809
98917.876400990819093
98908.645837629926973
98899.574300399995991
98890.43688421191473
98880.913488018632052
98870.919849451558548
98860.858254065635265
98851.673615286155837
98844.673610509766149
98841.239894742961042
98842.292051285985508
98848.133761192380916
98857.934172257781029
98870.325069133235957
98957.332789472566219
98973.061323631598498
98985.394659935904201
98994.052559490170097
99001.329929505314794
99010.314123642179766
99022.714284481160576
99037.510640308537404
99051.096014169976115
99058.924064695282141
99058.058647501296946
99049.280121376927127
99036.158743361098459
99023.609101733192801
99016.26500148109335
99015.387421613675542
99018.163672832131851
99020.091238449211232
99018.019831406811136
99011.877791709630401
99004.959205362465582
99002.186573434621096
99007.996197510816273
99024.681239524827106
99051.516510486340849
99084.462944592451095
99117.135984645196004
99142.439598688506521
99154.658915637002792
99151.457435439122492
99134.828088111593388
99110.160844858488417
99083.878665517593618
98920.535436763864709
98917.64322022855049
98911.523137266747653
98903.301308206529939
98894.2330031034071
98885.261468423283077
98876.745256771508139
98868.451215515306103
98859.751930286933202
98849.997144725522958
98838.924259493724094
98826.948589734267443
98815.207289026948274
98805.321560408148798
98799.042326117283665
98797.66351162797946
98801.865261584229302
98811.162875345267821
98824.288547431657207
98970.140855490535614
98976.868002375820652
98980.64743070055556
98986.31301724925288
98998.047104116820265
99016.683135811777902
99039.540481489282683
99061.236860970268026
99075.949535926003591
99080.563220727752196
99075.27367043151753
99063.605826792554581
99051.117807080154307
99041.724175816925708
99036.4740512809949
99034.060807113666669
99032.061583310045535
99028.66623832557525
99024.312453023550916
99021.472078975129989
99023.201676994081936
99032.202709492528811
99049.848053008987335
99075.241558730514953
99105.149961316783447
99134.462013857541024
99157.12479403137695
99168.207215016838745
99166.003069318176131
99152.64559000582085
99132.901086176614626
99112.150300812558271
98884.007321476150537
98879.750589427028899
98873.837177837995114
98867.213188471403555
98860.696242889942368
98854.668084725897643
98848.902427411871031
98842.675814877409721
98835.076145351311425
98825.380160928078112
98813.418712565733586
98799.820873785705771
98786.007535332770203
98773.912276587972883
98765.579431005593506
98762.519029856135603
98765.53251216490753
98774.246128066326492
98787.40873431993532
98976.034447148267645
98975.058869187923847
98978.960355302304379
98991.358257713509374
99012.562050227279542
99039.279308807221241
99066.269840034918161
99087.368466661209823
99098.282802580783027
99097.521612461016048
99087.842233109477093
99074.18101554941677
99060.834559336202801
99050.359627390818787
99043.595389220354264
99040.282399056071881
99039.88733762242191
99042.073199496138841
99046.819704118461232
99054.488932311694953
99065.217211301365751
99079.09998640838603
99096.423532128639636
99116.470047076989431
99136.610082476137904
99152.958051392677589
99162.084145621643984
99162.730986335329362
99156.58464561146684
99147.26938384710229
98834.918022531055612
98831.639660077882581
98829.202923697288497
98827.658695904538035
98826.561277125903871
98825.017809966404457
98821.903973855558434
98816.228776127434685
98807.497756196578848
98795.911776297914912
98782.415766938443994
98768.620627749682171
98756.517178903523018
98748.104913957038661
98744.803451884290553
98747.332430617374484
98755.333885636355262
98767.601487645428278
98982.320159264127142
98983.313204171994585
98992.837669872067636
99011.534195154352346
99037.242750977122341
99065.574304762267275
99090.67711846739985
99106.141115796563099
99109.046044075876125
99101.155631339599495
99087.463706709822873
99073.459220208751503
99062.888624274841277
99057.457243074910366
99057.03658975608414
99060.719371897634119
99067.660610059581813
99076.738359766590293
99086.525819204951404
99095.89119177084649
99104.467182833657716
99112.722304361508577
99121.347054513462353
99130.296534367647837
99138.568606818531407
99145.171980553393951
99149.942670082455152
99153.780738538582227
98789.08218859306362
98789.870141487132059
98792.768346947370446
98797.02064111828804
98801.38530414631532
98804.427304462908069
98804.852187812939519
98801.796891381134628
98795.100706002907827
98785.395194612938212
98773.977477398962947
98762.581601554513327
98753.060823092164355
98747.062924374869908
98745.548339003536967
98748.80753550514055
98756.260740529964096
98766.657643451209879
99003.289476046149503
99007.611767371301539
99019.196154951234348
99038.465092089711106
99063.146410791028757
99087.208803387678927
99104.072878926905105
99109.141262587727397
99103.948626180033898
99093.999441682855831
99085.447064086765749
99082.099128854955779
99083.927933594124625
99088.754292450044886
99094.32013292243937
99099.758161323668901
99105.785264963633381
99112.769069163172389
99119.658945875198697
99124.838779765574145
99127.478249254912953
99127.736535320043913
99127.029799481126247
99127.307204203520087
99130.214947928863694
99137.134674459826783
99148.54172262357315
98755.900745259044925
98763.13241647266841
98771.814958762348397
98780.376871405256679
98787.227658445204725
98791.073942423623521
98791.239793519416708
98787.854163339114166
98781.808679200883489
98774.539782498090062
98767.701875036189449
98762.786371685433551
98760.822568507108372
98762.081735905827372
98766.245729804111761
98772.40969481326465
98779.320602297753794
99037.701709088869393
99034.341475566383451
99033.460642068414018
99037.321374910403392
99048.453344326946535
99065.985420467695803
99085.230217842909042
99099.323088687757263
99104.592776886755018
99102.168295292634866
99098.050802384823328
99098.3884676261805
99105.16017010237556
99115.559766191450763
99124.84361549600726
99130.34026018458826
99132.912217417295324
99135.193142861069646
99139.184301956905983
99144.399689887402928
99147.988338105031289
99146.864438232922112
99140.422176565669361
99131.281667156188632
99123.844572689762572
99122.025679946775199
99127.784328380163061
98743.141475563243148
98753.32955907395808
98763.750901741528651
98773.085330210597022
98780.304941971611697
98784.882370545936283
98786.902354311008821
98787.037593301050947
98786.324671169408248
98785.801976090544485
98786.176890334638301
98787.711194975476246
98790.140802244786755
98792.876741007246892
98795.064542406398687
98795.85010587022407
99066.695286974310875
99063.292535180298728
99059.74425263638841
99059.364019480446586
99065.689603950435412
99078.278517762300908
99092.687704561540158
99102.986480256600771
99106.368430305286893
99104.777539570452063
99103.39881440991303
99107.540229022066342
99118.84180564469716
99134.126555678172735
99148.16102185244381
99157.972472136665601
99164.13822597420949
99168.795236863064929
99173.095340921572642
99175.511374033943866
99173.219497975936974
99164.48651095412788
99150.888164784788387
99136.949417361698579
99127.522014725313056
99125.13225288495596
99129.299553574208403
99138.18857612987631
98742.845124902160023
98752.656697610465926
98762.807376939686947
98772.581356534079532
98781.409521847759606
98788.962988368002698
98795.178161185947829
98800.183901300639263
98804.135961799489451
98807.094005014718277
98808.987296948340372
98809.543385664961534
98808.40638582262909
98805.226491592417005
98799.927570827960153
99083.733682955382392
99076.909111232569558
99073.545174403087003
99077.287293137400411
99087.797640489647165
99100.448818797638523
99109.831489448159118
99113.111878542244085
99112.012388726696372
99111.377804684045259
99115.735353912328719
99126.520555994386086
99141.73787297855597
99158.122636101063108
99173.571559564414201
99187.202823105297284
99198.29163336721831
99204.62143723423651
99203.695772110164398
99193.98436475462222
99177.093144470607513
99158.052259117175709
99142.579797674785368
99134.415010041208006
99133.657301222890965
99137.225929099731729
99141.96609981644724
98746.438508778941468
98756.550639770241105
98767.884293389157392
98779.668294753530063
98791.037276629780536
98801.208350296074059
98809.554949622004642
98815.594246975582791
98818.975707877310924
98819.531636076135328
98817.198060858863755
98812.019041838939302
98804.218460382864578
98794.417510830317042
99089.972462997931871
99083.340882648975821
99084.756064807035727
99094.017063412626158
99106.49976663076086
99116.744010043636081
99121.704022631907719
99122.268404443660984
99122.25327166543866
99125.500850588432513
99133.569087626368855
99146.16595394682372
99162.884669626568211
99182.834461186619592
99203.687743152899202
99220.914475930083427
99229.337227408148465
99225.270421750537935
99209.135627951603965
99186.332783277553972
99164.648353151773335
99150.646062517145765
99146.357549104330246
99148.554780679332907
99151.534135197754949
99151.656487510190345
98754.748812850724789
98766.59587174913031
98779.850267809670186
98793.215055494350963
98805.321699096006341
98814.938784635334741
98821.09642166546837
98823.199500341564999
98821.108510400503292
98815.127469274142641
98805.889042914786842
98794.257721868547378
98781.382509968359955
99088.892400143144187
99087.837084512080764
99096.151802912805579
99109.330802198310266
99121.402745784493163
99128.828007671283558
99131.983644193402142
99133.848034213704523
99136.915504887438146
99142.719723604488536
99152.588531594723463
99167.834338883432792
99188.59549996338319
99211.998796956191654
99232.01532309508184
99241.383441753918305
99235.582212555964361
99216.454800755571341
99191.821161699001095
99171.535785427346127
99162.163383039922337
99163.391195074946154
99168.91303465051169
99171.167875594765064
99166.644830727527733
98769.533775491639972
98782.347985271728248
98795.337836839607917
98806.849039735840051
98815.310184972040588
98819.579976454362622
98819.111752093900577
98813.954487645009067
98804.710946510313079
98792.413541674774024
98778.383275996442535
98764.12509589183901
99087.861462245695293
99095.181729630683549
99108.890314669421059
99122.866843962052371
99133.258552478000638
99139.633305416253279
99144.158091897959821
99148.866217616843642
99154.755127635304234
99163.13074354211858
99175.80191330712114
99193.559124716339284
99214.304578504947131
99232.378529018620611
99240.565495992195792
99234.528121749433922
99216.531060175097082
99195.003450023403275
99179.998767244484043
99177.013944174308563
99183.834962521737907
99192.242843432934023
99193.782626584652462
99185.557086625078227
99092.32674776208296
99106.492473129241262
99122.19619208817312
99135.204288369219285
99144.864624956200714
99152.753399277527933
99160.391705412606825
99168.138474047475029
99176.182797822300927
99185.529568853977253
99197.424685872843838
99211.426858249018551
99224.086570818908513
99230.059795338660479
99225.676789854420349
99212.587421165138949
99198.012795761518646
99190.342547849330003
99193.632026649676845
99204.613932863881928
99214.732493631221587
99215.775541031587636
99205.609759971295716
99120.849601986337802
99136.326925883957301
99149.077518244754174
99160.325092488215887
99170.996328765904764
99180.760715543627157
99188.577805256907595
99194.142722325923387
99199.041837926866719
99205.036642546925577
99211.554103358721477
99215.576893396049854
99214.45277211566281
99208.714436732712784
99202.788021799045964
99202.489230030041654
99210.256784860437619
99222.909653849594179
99232.964408369720331
99233.662038599344669
99223.629553409686196
99180.556117211963283
99191.202364005148411
99197.433479092476773
99198.78559474296344
99197.581049644693849
99197.01431795906683
99198.884557897501509
99202.551342199876672
99205.961996167097823
99208.181007639519521
99210.516557667142479
99215.785574063207605
99225.364123855601065
99236.913547533404198
99245.130409131204942
99245.514220550729078
99237.345902681336156
99193.10705773528025
99188.553856184240431
99188.812207220660639
99194.368208258107188
99203.02926481582108
99212.229351638627122
99220.911389573579072
99229.339841805485776
99238.080664594308473
99246.127749251041678
99251.155113489963696
99251.10890068700246
99245.738170493103098
99181.305302516338998
99182.87022739094391
99191.826645377994282
99205.514667758427095
99220.018657114502275
99232.452729531913064
99241.608793912106194
99247.580682628176874
99250.908860912764794
99252.155250903466367
99251.439962756063323
99248.973089785300544
99085.204150499019306
99121.483391701374785
99150.579017417461728
99168.525827414763626
99177.638879794278182
99182.223014286428224
99185.795188502161182
99188.885191991794272
99191.180426885024644
99193.70429899301962
99198.731372282330994
99207.545250929862959
99218.038717907053069
99224.810564121522475
99222.912187010952039
99212.803003253779025
99198.98792923874862
99186.993506805010838
99179.009996711291024
99173.825021889861091
99038.342664901312673
99072.998440736744669
99112.092128881558892
99142.877606720750919
99160.005529368427233
99166.369096047856146
99169.674097800001618
99175.291039102332434
99184.250816577070509
99194.616248768768855
99204.234495873111882
99212.921870549034793
99221.537596249574563
99229.333650145767024
99233.67010099615436
99231.318930813999032
99221.805468104706961
99207.922030992413056
99193.199677279553725
99180.490218739490956
99170.683357733287266
99163.188532939500874
99023.567720598046435
99011.352573555981508
99025.827983175608097
99061.783338778855978
99103.799459781032056
99136.138460861897329
99152.052053055464057
99155.812350294901989
99157.397689176330459
99164.75785704725422
99179.329992683415185
99197.335372642774018
99214.016492852053489
99226.348580103658605
99234.587596713026869
99239.568564415036235
99241.271149562759092
99238.463070693367627
99229.812164365415811
99216.018372408056166
99199.155412456399063
99182.082401168314391
99167.925099241503631
99158.060679886475555
99151.333897299104137
99143.412672182428651
99059.114897635183297
99019.928967396670487
99002.044960541810724
99014.575698870379711
99051.820804504910484
99096.768289974774234
99130.51128730950586
99145.157754271378508
99146.114602386471233
99145.931551146961283
99154.659601935083629
99174.293669586651959
99199.692055816805805
99222.805063206993509
99238.55312620314362
99246.29099871062499
99248.616301423782716
99247.6119640662655
99244.174440244372818
99236.558504541884759
99223.205557603621855
99204.585791221019463
99183.667312611549278
99165.432151468776283
99153.6662588812178
99146.773572237201734
99139.160607754689408
99126.441925892053405
99111.680081498416257
99060.823173880606191
99016.624741011852166
98994.125392162430217
99004.347180784810917
99043.255628695143969
99091.08732462314947
99126.306978454813361
99139.566460217771237
99137.684368935486418
99135.690366906448617
99145.3980152419972
99169.592798523110105
99201.412706384886405
99230.668190523574594
99249.325469283241546
99256.482996042526793
99256.084452848299406
99252.74276620663295
99248.859117427346064
99242.254609432871803
99229.506267074379139
99209.417319398577092
99185.014565270888852
99163.311065585468896
99149.865738213789882
99143.041081922274316
99135.885297285756678
99122.067225632810732
99102.554665768620907
99159.69862322510744
99116.091255896288203
99062.758121227670927
99013.768659158988157
98986.92164184935973
98995.993424412969034
99036.380379324662499
99086.826326773356413
99123.413993503607344
99135.350178479697206
99130.708126933575841
99126.804393867700128
99137.36434412797098
99165.323268831998575
99202.833769754346577
99237.162999033520464
99258.511721748363925
99265.070875341116334
99262.051267728558742
99256.655696195535711
99252.175098478182917
99246.698116605868563
99234.773894795755041
99213.495523134552059
99186.155571819122997
99161.535744697277551
99146.685316639021039
99140.41238955159497
99133.629950988994096
99118.609313824446872
99096.921979886450572
99078.35101554042194
99162.85750951168302
99119.831995748405461
99064.473208179944777
99010.907931297086179
98980.934671549883205
98988.893923686817288
99031.004291881501558
99083.964568698647781
99121.720376683733775
99132.487575398277841
99125.271972280592308
99119.702721231107716
99130.715558933472494
99161.824561669229297
99203.936098459074856
99242.412867953898967
99265.805164716643048
99271.842409697099356
99266.68416761761182
99259.482845627877396
99254.746274758625077
99250.093049682371202
99238.975492604644387
99216.732885642777546
99187.008716787895537
99159.952908251667395
99144.104586113870027
99138.367004959989572
99132.329843342347885
99116.240482030436397
99092.146372787043219
99072.049957225870457
99067.94006158238335
99218.461346601383411
99190.84462489708676
99133.195734909779276
99090.073136166654876
99079.932261449765065
99106.05097890921752
99165.186160410317825
99122.795047828403767
99065.508397576690186
99008.815294212748995
98976.422068807252799
98983.667097133569769
99027.256415186813683
99082.325797195997438
99120.863431270525325
99130.720003558788449
99121.626592505912413
99114.633177640818758
99125.965458566424786
99159.379771121122758
99204.891644708550302
99246.327860929784947
99271.117630536886281
99276.559177042319789
99269.849791465268936
99261.316225716785993
99256.400801334501011
99252.50908945131232
99241.883560646383557
99219.048481664183782
99187.554184171574889
99158.664139780958067
99142.246456518536434
99137.180472245279816
99131.666181903114193
99114.872470314920065
99088.892201344671776
99067.477838632024941
99063.579144262781483
99079.416342910932144
99180.128683158909553
99223.40233489467937
99193.594519873237005
99132.737047221729881
99087.217836815310875
99075.77944469670183
99102.396453686305904
99166.476353083649883
99124.31628191350319
99065.841204323311104
99007.479557784376084
98973.668334251691704
98980.963193745090393
99025.405572852730984
99081.740998864464927
99120.604624252955546
99129.933052703170688
99119.643828957734513
99111.767055452772183
99123.488443745358381
99158.112663619540399
99205.491638288411195
99248.498208476812579
99273.856206231954275
99279.004447741041076
99271.448271560511785
99262.157751417529653
99257.253531838738127
99253.842783315703855
99243.407343455794035
99220.27808903431287
99187.769455517074675
99157.88341805600794
99141.30609137036663
99136.704196577367838
99131.365534977740026
99114.300317780638579
99087.183622799027944
99064.975123990181601
99061.31349027948454
99078.119552181233303
99104.619491778910742
99019.646885167254368
99031.849146778142313
99039.641941013978794
99041.219024328049272
99035.82234247274755
99023.965667001000838
99007.362755262976862
98988.548365877111792
98970.467541310470551
98955.635904557275353
98946.242917018942535
98913.288967506261542
98929.179991089724354
98948.718861906163511
98963.320326187415048
98964.829823938343907
98951.784669899672735
98931.076215102453716
98913.666141414578306
98907.701113776070997
98913.599329163189395
98924.70490719017107
98932.006441743884352
98930.100921138437116
98918.704536504636053
98903.326537066459423
98889.703528944883146
98883.810568984845304
98889.144875445577782
98902.897339091839967
98920.650299677290604
98937.497763376188232
98949.188580771777197
98952.959568034231779
98948.613622592311003
98938.786953295086278
98928.128914936969522
98921.333320822057431
98921.083417275658576
98926.639180145954015
98933.675520552758826
98936.347883804250159
98931.364447317813756
98920.813518421942717
98911.394446011996479
98909.878250117006246
98918.163545734452782
98924.078722849590122
98932.376188717928017
98941.218247965705814
98949.780851091985824
98957.679858980511199
98965.083792771532899
98972.56882550586306
98980.790888076924603
98990.089943482031231
99000.209504929298419
99010.163523517665453
99018.330057464452693
99022.739668190901284
99021.621013789248536
99014.063259321250371
99000.427498940814985
98982.32532451566658
98962.159462988041923
98942.759588234534021
98926.627226387980045
98916.09338356104854
98926.391893927575438
98942.889229244829039
98960.498922648373991
98970.626034535802319
98966.518072372709867
98948.65264225807914
98925.308104958501644
98907.257153477461543
98901.444566761769238
98907.006508502570796
98916.497678358340636
98921.699222613198799
98918.204619241165346
98907.915383983941865
98896.238280667254003
98890.326206444718991
98894.914710956974886
98909.893157224971219
98932.199113714712439
98956.134147826669505
98974.818717679154361
98982.863848435634281
98978.073583982652053
98961.985006439630524
98939.788964372608461
98919.002595002210001
98907.419844391930383
98909.175077653999324
98922.413860449203639
98940.114824179865536
98953.496867414738517
98956.976825848498265
98951.77464963667444
98944.91322903749824
98944.16452667255362
98952.095425197127042
98907.494883412204217
98919.679627039644402
98932.711944027250865
98945.212014475124306
98956.127789442252833
98965.041217050456908
98972.187813538388582
98978.244849944167072
98983.907028623958468
98989.426730081599089
98994.358009436778957
98997.632672589490539
98997.876867386614322
98993.783130013674963
98984.519894058728823
98970.111830979629303
98951.717155904145329
98931.405021838800167
98911.820742186944699
98895.339283400389832
98884.18556641707255
98959.39638300043589
98970.921557409208617
98973.990280224315939
98964.530395214009332
98944.660200807280489
98922.323218692908995
98906.427987213333836
98901.177670294215204
98904.502689153436222
98910.119833887278219
98912.029615245366585
98908.156425190711161
98901.518043579199002
98897.211368158692494
98900.187069440682535
98913.054816615112941
98935.09375248021388
98962.476934823804186
98988.571311107400106
99005.966995340946596
99009.003925158118363
98996.164296702278079
98970.727057081414387
98939.684077497877297
98912.424032459122827
98897.961839703377336
98900.929252867848845
98919.047847209323663
98944.043274910465698
98965.805464315970312
98977.754128141721594
98980.14425695031241
98978.917630770418327
98980.825847927597351
98904.506074667151552
98920.128134714672342
98935.185423329021432
98948.129212865067529
98958.02999825112056
98964.747951802026364
98968.793658617505571
98970.976503849917208
98971.983284028494381
98972.019418468669755
98970.680065854990971
98967.117010167770786
98960.40337959198223
98949.916963567928178
98935.595774372282904
98918.160313111191499
98899.036120359945926
98880.308535309159197
98864.060033192537958
98852.422176888445392
98976.993296943299356
98980.582034149862011
98975.878101424750639
98962.625529878991074
98944.225865910979337
98926.410659936169395
98913.749763858897495
98907.839952397029265
98905.965487587120151
98905.191403617616743
98903.190578415509663
98901.141232734022196
98901.847268500074279
98907.766957579020527
98920.227992186948541
98939.418024704587879
98964.097240509363473
98990.892969801469008
99014.279844535121811
99027.567006044380832
99025.458484711358324
99007.021308713854523
98976.633042530855164
98942.482381287336466
98914.115396734021488
98899.530752946127905
98902.428635129283066
98920.555760644434486
98946.847895781334955
98972.697908867092337
98992.176267696850118
99004.205609794415068
99011.482350390826468
99017.502759438444627
98884.679044021788286
98900.60597107243666
98916.157832439770573
98929.582244834935409
98939.686584860188304
98946.033027693221811
98948.896414141156129
98949.00418398801412
98947.184850507241208
98944.033677250641631
98939.697637446064618
98933.848078157374403
98925.878527892375132
98915.247962239576736
98901.793399125337601
98885.98076008852513
98868.779488291431335
98851.708260572122526
98836.380383709038142
98824.625814907209133
98991.269280835142126
98979.924310865957523
98965.794724696461344
98952.086630506819347
98940.179550261324039
98929.966356542237918
98920.339186735101976
98911.120323608149192
98902.463889453312731
98897.559162321893382
98900.084336249958142
98911.132507334812544
98928.905686222700751
98950.24098579902784
98972.715244070161134
98995.292044854155392
99016.638445239528664
99033.369525668298593
99040.375471954874229
99033.68358685131534
99013.118523212862783
98983.53790256663342
98953.045086924335919
98929.351502208999591
98917.462224471659283
98918.817496776115149
98931.799509240881889
98952.868300917703891
98977.760124366206583
99002.651135793581489
99024.657420606192318
99041.692407208538498
98873.534231720826938
98887.228140445629833
98899.384832859999733
98908.726036908046808
98914.624674438178772
98917.129756561145769
98916.786966482060961
98914.336692181881517
98910.427225691877538
98905.417509596634773
98899.288270364675554
98891.715927584125893
98882.283700074462104
98870.734759084531106