/*--------------------------------*- C++ -*----------------------------------*\
  =========                 |
  \\      /  F ield         | OpenFOAM: The Open Source CFD Toolbox
   \\    /   O peration     | Website:  https://openfoam.org
    \\  /    A nd           | Version:  12
     \\/     M anipulation  |
\*---------------------------------------------------------------------------*/
FoamFile
{
    format      ascii;
    class       volScalarField;
    location    "0.006";
    object      pMean;
}
// * * * * * * * * * * * * * * * * * * * * * * * * * * * * * * * * * * * * * //

dimensions      [1 -1 -2 0 0 0 0];

internalField   nonuniform List<scalar> 
106891
(
98710.667637346094125
98711.375955900439294
98712.120897845437867
98712.903207308525452
98713.723130657381262
98714.580659171377192
98715.475359983785893
98716.407151982362848
98717.374651723643183
98718.376797431701561
98719.404712832940277
98707.578490614716429
98707.487392607392394
98707.403609906963538
98707.32202869108005
98707.236581107004895
98707.143455930345226
98707.043586134692305
98706.941895837284392
98706.844164478723542
98706.753891552390996
98706.671148387889843
98706.594291802379303
98706.521982640799251
98706.454530974122463
98706.394092751550488
98706.342978818691336
98706.301743522126344
98706.268762227176921
98706.240855371434009
98706.214356313168537
98706.186122799961595
98706.154013387757004
98706.117323866928928
98706.077124505449319
98706.035841055738274
98705.996246603419422
98705.960275156496209
98705.928079433142557
98705.898056242702296
98705.867770279975957
98705.836134598677745
98705.804884756100364
98705.777912538207602
98705.759011337650008
98705.749263584657456
98705.745726661421941
98705.742532746167853
98705.733640864607878
98708.887707102388958
98709.390533997197053
98709.916572074915166
98710.466468878061278
98711.041120608395431
98711.641792518872535
98712.270113203048822
98712.927904310257873
98713.61694054484542
98714.338823392885388
98715.094930361432489
98715.886292022201815
98716.713553962705191
98717.576912115633604
98718.476356498460518
98719.411384360369993
98720.381714479881339
98721.385752807094832
98722.422115782246692
98723.482446676876862
98707.578809299666318
98707.486346488003619
98707.394530071338522
98707.298795340509969
98707.196883778873598
98707.090422309716814
98706.983974978895276
98706.882039540243568
98706.78678606361791
98706.697877334037912
98706.61368156291428
98706.533205236570211
98706.457037905274774
98706.387418833459378
98706.326853292397573
98706.27599148711306
98706.233254039092571
98706.195699690913898
98706.160121978609823
98706.12413328018738
98706.086423271655804
98706.046868743811501
98706.006644987966865
98705.967327227161149
98705.93009735486703
98705.895105607109144
98705.86132306959189
98705.826803335352452
98705.789780426915968
98705.750435014735558
98705.71155729178281
98705.677606119948905
98705.652541761563043
98705.637538527007564
98705.630150790020707
98705.625357108947355
98712.104868426642497
98712.654282740535564
98713.226437019751756
98713.822369686473394
98714.443263058303273
98715.090426680675591
98715.76526855006523
98716.469277221374796
98717.203921284264652
98717.970503767370246
98718.770101025147596
98719.603527895422303
98720.471365390258143
98721.37381133659801
98722.310885057318956
98723.282075457304018
98724.287012401400716
98725.324027652881341
98726.391457001751405
98727.481285412766738
98707.667164952319581
98707.567387260540272
98707.46645367203746
98707.361675713676959
98707.252536931351642
98707.141438133345218
98707.031947153780493
98706.926798189029796
98706.826574725375394
98706.730133996752556
98706.636163734074216
98706.54471126126009
98706.457702217216138
98706.378092215396464
98706.308134831706411
98706.247746518667554
98706.194660315231886
98706.145870691776508
98706.098890619221493
98706.052694233876537
98706.007789585157298
98705.965410277523915
98705.926468397607096
98705.891077923151897
98705.858155564186745
98705.825638883776264
98705.790995959148859
98705.752141511577065
98705.708369779516943
98705.661091125424718
98705.614000967048923
98705.571992899902398
98705.539338499555015
98705.517756859728252
98705.505601149197901
98705.498810112694628
98715.896897460072068
98716.512086230301065
98717.150957846417441
98717.814873036273639
98718.505152886369615
98719.223028575754142
98719.969625983547303
98720.745987246686127
98721.553102293270058
98722.391901040973607
98723.263147986654076
98724.167434371251147
98725.104968246159842
98726.075795065218699
98727.079407463155803
98728.115336896124063
98729.181788987683831
98730.27676710934611
98731.392524770184536
98707.635977320169332
98707.528149271165603
98707.417143765866058
98707.303880611914792
98707.190620034816675
98707.079571860813303
98706.971577732285368
98706.865744485912728
98706.760690429291571
98706.656152425741311
98706.553615477896528
98706.455980388273019
98706.366351577831665
98706.286338085861644
98706.215257707051933
98706.150630324787926
98706.089536312647397
98706.030503353045788
98705.974292505561607
98705.92279146736837
98705.87758472574933
98705.839047898058197
98705.80600113964465
98705.775545754047926
98705.743936264276272
98705.707875902779051
98705.665381994200288
98705.616269217251102
98705.562656064212206
98705.50887760927435
98705.460248908071662
98705.42123354501382
98705.393926480683149
98705.377437439805362
98718.469222288695164
98719.103271551197395
98719.759407552148332
98720.439136732122279
98721.14384694166074
98721.874695185324526
98722.632578631615615
98723.418218689301284
98724.2323343262251
98725.075722032124759
98725.949258271735744
98726.853785623796284
98727.790081494822516
98728.758560291142203
98729.759395491084433
98730.792049436728121
98731.855823120960849
98732.948706551425857
98734.068339843041031
98735.207199128024513
98707.693939642049372
98707.580608981152182
98707.465353296414833
98707.350477894695359
98707.237794420027058
98707.127476361070876
98707.017963970531127
98706.906943750465871
98706.793143956834683
98706.677437544829445
98706.562755627586739
98706.452964082694962
98706.35127802741772
98706.25903788288997
98706.175365327057079
98706.097998114477377
98706.024988814795506
98705.955971113537089
98705.89237897899875
98705.836179599238676
98705.788506358469022
98705.749176917466684
98705.716403320169775
98705.686541875358671
98705.655014204166946
98705.617856338620186
98705.572888128590421
98705.520287273597205
98705.46278225351125
98705.405157601766405
98705.352870410933974
98705.310203577741049
98705.279022751841694
98722.262062868801877
98722.958234048812301
98723.677664101720438
98724.42153391285683
98725.190741827551392
98725.985937015997479
98726.807644834028906
98727.656365161034046
98728.532659105258062
98729.437247202746221
98730.371010081798886
98731.334961804503109
98732.329855789677822
98733.356175663939212
98734.413497784291394
98735.500976903509581
98736.616451519003022
98737.757287020504009
98738.916317814699141
98707.612917748716427
98707.494524201159948
98707.37916412614868
98707.267681344412267
98707.158532954417751
98707.04869376582792
98706.93508016281703
98706.815950065109064
98706.692321826747502
98706.567436195269693
98706.445545331196627
98706.330663264670875
98706.224971843752428
98706.128493839307339
98706.040203982993262
98705.958904641971458
98705.883943967957748
98705.81574267653923
98705.755568592096097
98705.704150420206133
98705.660928264886024
98705.623881803883705
98705.589713215696975
98705.554564148158533
98705.515055787647725
98705.469175108330091
98705.41696532611968
98705.360867028910434
98705.305125678627519
98705.254148492371314
98705.211268347746227
98705.17816514520382
98725.35754220293893
98726.093196135916514
98726.851349120232044
98727.632846584645449
98728.438302225840744
98729.268145470297895
98730.122708356560906
98731.002404771759757
98731.907895205193199
98732.840143653913401
98733.800231034983881
98734.789216338991537
98735.807832663456793
98736.856485191223328
98737.934739975011325
98739.041810806069407
98740.175673401725362
98741.333654418966034
98742.509089296348975
98707.511310246889479
98707.394846343595418
98707.283490618938231
98707.17474238613795
98707.064799821950146
98706.949870975600788
98706.827709889737889
98706.69877351798641
98706.566234931626241
98706.4348737418768
98706.309464110599947
98706.192882731076679
98706.086224587765173
98705.989560185800656
98705.902201289383811
98705.823246267580544
98705.752050909475656
98705.688123672327492
98705.630725000446546
98705.579045397229493
98705.532274080469506
98705.489291454810882
98705.448276468858239
98705.406920430628816
98705.363078685099026
98705.315974111465039
98705.266751896386268
98705.217948464443907
98705.172396172856679
98705.132212641590741
98729.157248241754132
98729.952991687343456
98730.77057361252082
98731.61015762668103
98732.471910364925861
98733.356162611700711
98734.263525906004361
98735.194906379489112
98736.151456004168722
98737.134412739469553
98738.144976857540314
98739.183877468312858
98740.251427968367352
98741.347028913121903
98742.469697282198467
98743.617372276101378
98744.78757669418701
98745.974546981306048
98707.389712605043314
98707.276237414873322
98707.165710069704801
98707.054498808953213
98706.938725564890774
98706.815738959237933
98706.685090126295108
98706.549207108255359
98706.412964067596477
98706.281675599326263
98706.159354046656517
98706.047824619454332
98705.947156290290877
98705.856502939437632
98705.774408513185335
98705.699323943903437
98705.629964576248312
98705.56530710979132
98705.504875162790995
98705.448711195596843
98705.396881812921492
98705.349178841817775
98705.304900774252019
98705.262995618482819
98705.222369211507612
98705.182494520413456
98705.143560983487987
98705.105964479007525
98732.14037664719217
98732.97081660098047
98733.821196834003786
98734.691510869888589
98735.581970054729027
98736.493065325004864
98737.425608024306712
98738.38068086488056
98739.359515069314511
98740.36327511559648
98741.392921765174833
98742.448976143583423
98743.531603068709956
98744.640142183226999
98745.773685670486884
98746.930409876862541
98748.108165198049392
98749.301842446220689
98707.267191211445606
98707.15211314096814
98707.038018330014893
98706.921857932466082
98706.800734485892463
98706.673080599619425
98706.540159143085475
98706.406247326434823
98706.276825802240637
98706.155672363354824
98706.043843610721524
98705.9402152440598
98705.843008113617543
98705.75129840572481
98705.665185450852732
98705.585194009312545
98705.511420209077187
98705.443276844569482
98705.380107498756843
98705.32181354649947
98705.26879916593316
98705.221672346277046
98705.180581265944056
98705.144718789597391
98705.112722909834702
98705.08283124314039
98705.052912921164534
98735.90725962765282
98736.788037638922106
98737.686877812986495
98738.603784082675702
98739.539240611076821
98740.494189087941777
98741.469841180543881
98742.467474212447996
98743.48816703898774
98744.532686896724044
98745.601264761324273
98746.693814289828879
98747.809685894186259
98748.948235337811639
98750.108147204693523
98751.288070027716458
98752.484049965627491
98707.390321502825827
98707.263118282629875
98707.140831177835935
98707.021964586267131
98706.903784919530153
98706.78307677723933
98706.657880425846088
98706.529224244703073
98706.400898416701239
98706.277240455150604
98706.16090242296923
98706.051732039850322
98705.947684707163717
98705.846642481294111
98705.748371441208292
98705.654426701032207
98705.566548525093822
98705.485360940525425
98705.410275417161756
98705.340335076863994
98705.275225536621292
98705.215823331323918
98705.163759593109717
98705.12031033229141
98705.085243628971511
98705.056565826715087
98705.031126428919379
98739.648221008610562
98740.573301733777043
98741.51541573482973
98742.474829788552597
98743.452079518916435
98744.447894321478088
98745.463087807860575
98746.498419622963411
98747.554483318206621
98748.631549176629051
98749.729704168436001
98750.848618717602221
98751.988060372474138
98753.147247661356232
98754.325552067020908
98755.519924840496969
98707.426356029187446
98707.29200737021165
98707.162635434331605
98707.038169631297933
98706.916684000607347
98706.795298631346668
98706.672132352294284
98706.547563334650476
98706.424483151451568
98706.306290909735253
98706.19479568467068
98706.089320546831004
98705.987289000913734
98705.886316208183416
98705.78595580268302
98705.687663133998285
98705.593234956060769
98705.503577809329727
98705.418693594197975
98705.338673086953349
98705.264566302736057
98705.198419757187366
98705.142436800553696
98705.097353686680435
98705.061805972145521
98705.032901265905821
98705.007516479439801
98704.983168217149796
98742.94902747112792
98743.910015363493585
98744.887416391720762
98745.88127628363145
98746.891801916368422
98747.919362508400809
98748.964407152569038
98750.027389212933485
98751.108676909381757
98752.208613728784258
98753.327387309313053
98754.465389309101738
98755.622485861211317
98756.798725852320786
98757.99176951366826
98707.320063299994217
98707.187139184505213
98707.060217548743822
98706.93725743694813
98706.815501070232131
98706.693248039315222
98706.570972503948724
98706.451156353155966
98706.336651770019671
98706.228698560022167
98706.12624144005531
98706.026858510274906
98705.928433902736288
98705.830134857460507
98705.732190526250633
98705.635110606584931
98705.539515674900031
98705.446381209549145
98705.357663280170527
98705.276456520994543
98705.205919334315695
98705.147718273496139
98705.101262486656196
98705.063875429143081
98705.03203868685523
98705.002965166248032
98704.975565756831202
98745.795730934696621
98746.785586951053119
98747.790763854805846
98748.811120649144868
98749.846714214465464
98750.897779778271797
98751.964754155953415
98753.048199380122242
98754.148807883029804
98755.267215146945091
98756.404168412002036
98757.559918800267042
98758.734930812977836
98759.927152294199914
98707.220333023971762
98707.092915467175771
98706.971192812517984
98706.85196517703298
98706.732849670544965
98706.613786098867422
98706.496749144411297
98706.384372134620207
98706.278045734172338
98706.177101162378676
98706.079667248588521
98705.983969931432512
98705.888757118125795
98705.792688993664342
98705.694607228375389
98705.59461453044787
98705.494839775390574
98705.399186979659135
98705.312485489295796
98705.238489535477129
98705.178268018295057
98705.129699505981989
98705.08871321514016
98705.051454890752211
98705.016270031541353
98704.983789715581224
98748.483443232136779
98749.496808460826287
98750.52404087074683
98751.565038516535424
98752.620035665211617
98753.689579273588606
98754.774463608773658
98755.875660721081658
98756.994158756482648
98758.131037645362085
98759.286772051054868
98760.461981114378432
98761.654626535499119
98707.125997299895971
98707.007258870333317
98706.89158019531169
98706.77606264197675
98706.660421509310254
98706.546366279420909
98706.436067392249242
98706.330760674580233
98706.230346061376622
98706.133907942145015
98706.040114310657373
98705.94720597541891
98705.85283145030553
98705.754875531987636
98705.653215876591275
98705.550463222796679
98705.451577407467994
98705.362295141996583
98705.286614200857002
98705.224649763593334
98705.172722756848088
98705.125916044213227
98705.080980152619304
98705.037809669593116
98704.998754258645931
98751.023590361597599
98752.055176186797325
98753.099547971753054
98754.156998284219299
98755.228255402689683
98756.314399988594232
98757.41667179367505
98758.536303060493083
98759.674451061713626
98760.831586459680693
98762.008321604575031
98763.202485845031333
98707.044633766810875
98706.93361317810195
98706.823180385996238
98706.712533737372723
98706.602922609570669
98706.495923954091268
98706.392486581360572
98706.29275490080181
98706.196259441261645
98706.10214128147345
98706.008984136060462
98705.91476464169682
98705.817439016216667
98705.716655223834096
98705.614843858667882
98705.516800929952296
98705.427940834269975
98705.35162779984239
98705.287343846270232
98705.23091127621592
98705.177266316837631
98705.123774265040993
98705.071726886293618
98705.024917105722125
98706.969366974924924
98706.865194599347888
98706.760310016470612
98706.655439680165728
98706.551951593719423
98706.450691166013712
98706.351655190417659
98706.254211740524624
98706.157965423131827
98706.06258951529162
98705.967385856900364
98705.871153963467805
98705.773512184474384
98705.676052433525911
98705.582432750248699
98705.496576610094053
98705.420717175351456
98705.353869052763912
98705.292147721309448
98705.231162244395819
98705.169160822406411
98705.108354556228733
98705.053342057828559
98706.807224954449339
98706.706953023865935
98706.606771664155531
98706.507233417141833
98706.408319391222904
98706.309794562999741
98706.211801124693011
98706.114905569585972
98706.019542720430763
98705.925426235247869
98705.832193999696756
98705.740384139004163
98705.651727674965514
98705.568455567685305
98705.491739037563093
98705.420828993374016
98705.352908876331639
98705.284811321645975
98705.215732446245966
98705.14818016825302
98705.086376392981037
98706.455264579039067
98706.355698595958529
98706.256264542156714
98706.158551522210473
98706.063889703043969
98705.972692058479879
98705.884330277200206
98705.797979500872316
98705.713573305503814
98705.631752358385711
98705.553132815737627
98705.477384059515316
98705.403181749556097
98705.328916255428339
98705.2545370079024
98705.182174432018655
98705.11506484367419
98706.107899838316371
98706.02078674135555
98705.937186657858547
98705.855244563630549
98705.773435969298589
98705.691210968798259
98705.608981915487675
98705.527432795614004
98705.446934123901883
98705.367518268874846
98705.289477051817812
98705.214128000210621
98705.143324457982089
98706.06107627649908
98705.981495284242555
98705.902178573640413
98705.820756406217697
98705.736403815230005
98705.650006527168443
98705.563268522368162
98705.477831956697628
98705.394852074750816
98705.314827996087843
98705.238070898514707
98705.164787950998289
98718.167310086981161
98717.988633385888534
98717.795299785429961
98717.592022059325245
98717.38424187360215
98717.175665225047851
98716.967657180590322
98716.760283148047165
98716.553181674185907
98716.345777127804467
98716.136796038757893
98715.92428815815947
98715.70650663417473
98715.483465726589202
98715.258427630164078
98715.036401451419806
98714.820958052427159
98714.61266739689745
98714.410084597679088
98714.211598578564008
98718.331277163146297
98718.173927760595689
98717.999565054939012
98717.809003203175962
98717.608095834089909
98717.403735984058585
98717.199822458525887
98716.996596133642015
98716.792484609453822
98716.585586547196726
98716.374945475545246
98716.160277569157188
98715.94150150565838
98715.718310367097729
98715.491379721075646
98715.263239921405329
98715.037975425555487
98714.818876613644534
98714.607179059079499
98714.402628571187961
98714.204259928883403
98714.010725963365985
98718.618806397556909
98718.475013153030886
98718.333816829370335
98718.181934815453133
98718.011454710096586
98717.823136070626788
98717.624027662270237
98717.422265052839066
98717.222334239442716
98717.023585740374983
98716.822531717698439
98716.615953946427908
98716.402451476664282
98716.182610676594777
98715.958177340813563
98715.730359221954131
98715.500223870767513
98715.269757335845497
98715.041924832665245
98714.819859455383266
98714.605360411165748
98714.399185250920709
98714.200885801023105
98714.008687452558661
98713.820505516574485
98713.636093863940914
98718.768748689282802
98718.610122164333006
98718.468837908803835
98718.331906479361351
98718.184359456092352
98718.017121092314483
98717.830750158638693
98717.633268858364318
98717.434204833072727
98717.238345458696131
98717.04401480575325
98716.846215199737344
98716.640216760104522
98716.424096108908998
98716.199405362291145
98715.969543644183432
98715.737373153606313
98715.504318951541791
98715.271715574970585
98715.041573323993362
98714.81658955423336
98714.599262143354281
98714.39150654336845
98714.193391473658266
98714.002557494415669
98713.815870221020305
98713.632603464560816
98713.454951257590437
98718.943646120489575
98718.760063082867418
98718.602851574556553
98718.465220782352844
98718.333137734007323
98718.189961819938617
98718.02522845591011
98717.839611575764138
98717.642681754354271
98717.445400107404566
98717.252750502811978
98717.062138457986293
98716.867117874047835
98716.661701044431538
98716.4434424481733
98716.214726041827817
98715.980572688669781
98715.744905956104049
98715.509601189260138
98715.275481481119641
98715.043679225913365
98714.816467445241869
98714.596795887628105
98714.387603254363057
98714.189651279026293
98714.000048354428145
98713.814738100147224
98713.632350799030974
98713.455443671453395
98713.288476572517538
98719.14827983143914
98718.93736029266438
98718.752282703091623
98718.594798136720783
98718.459024822426727
98718.330086650312296
98718.18980538607866
98718.026943216187647
98717.842357499335776
98717.646390984198661
98717.451099737372715
98717.261625960381934
98717.074637775906012
98716.882267321139807
98716.677303611155367
98716.457005860211211
98716.224446624721168
98715.986101952134049
98715.747429167211521
98715.510356097773183
98715.275011698948219
98715.041827989654848
98714.812656142777996
98714.590993637117208
98714.38070957979653
98714.182994464223157
98713.994468050907017
98713.810116384964203
98713.628201836298103
98713.451838779190439
98713.286132049746811
98713.134374396686326
98719.147689170742524
98718.935394030297175
98718.749289296480129
98718.592532976384973
98718.459400045729126
98718.333914467686554
98718.196587219761568
98718.035242419980932
98717.850804586123559
98717.654717784971581
98717.460195132764056
98717.272707608586643
98717.088178698686534
98716.89767259657674
98716.693058297867537
98716.47131068771705
98716.236063268734142
98715.994809277035529
98715.75380032506655
98715.515346237560152
98715.279289146652445
98715.045312235262827
98714.814767414995003
98714.591507055083639
98714.380307947692927
98714.182782908334048
98713.995184046114446
98713.811693978510448
98713.630143447735463
98713.453936983758467
98713.289134268154157
98713.139313060615677
98713.001566020102473
98731.97580119803024
98731.688585231837351
98731.440874377556611
98731.232906723380438
98731.049913707029191
98730.87431077499059
98719.146049051705631
98718.932583976071328
98718.74541993883031
98718.588644872943405
98718.456833653908689
98718.333366612030659
98718.197786741278833
98718.03729007144284
98717.852916233532596
98717.656846068508457
98717.463163624634035
98717.277408284440753
98717.09490980116243
98716.905928079009755
98716.701598369283602
98716.478586752768024
98716.241042078530882
98715.997474925330607
98715.754876712497207
98715.515589050424751
98715.279107310023392
98715.044532183848787
98714.812959020651761
98714.588540875163744
98714.376711398013867
98714.179444482375402
98713.992595505027566
98713.809612565106363
98713.628155853366479
98713.45193786128948
98713.287653146951925
98713.139262728727772
98713.003322471835418
98712.871447363155312
98732.279084290275932
98731.975544541623094
98731.686405576037942
98731.437978110305266
98731.23071926132252
98731.049339836943545
98730.87556895200396
98719.15115557469835
98718.937249154914753
98718.749766332752188
98718.593298151972704
98718.462624400664936
98718.34052727483504
98718.205981040780898
98718.045944393161335
98717.861417979889666
98717.665134384151315
98717.471708431476145
98717.286749601858901
98717.105187178822234
98716.916919613518985
98716.71270637382986
98716.488998149172403
98716.250399223878048
98716.005792158553959
98715.762376234735711
98715.522625237063039
98715.285990757693071
98715.051111779190251
98714.8189790284232
98714.593936959281564
98714.381820982307545
98714.184796890142024
98713.998359342222102
98713.815671966338414
98713.634294629751821
98713.458062868274283
98713.294025595503626
98713.146523963063373
98713.011548626731383
98712.880373039733968
98712.746644059501705
98711.541861518024234
98712.231576136808144
98712.952302625431912
98713.706670582410879
98714.497676896047778
98715.328418843768304
98716.201390723741497
98717.118572775580105
98718.079518729296979
98719.082938776686206
98720.118018710520118
98708.610125741921365
98708.516475224852911
98708.421422345636529
98708.324719995769556
98708.229780428562663
98708.142232981743291
98708.066604750682018
98708.00331444699259
98707.948223205545219
98707.895243964740075
98707.839930283851572
98707.781378711079014
98707.722383501270087
98707.667590614655637
98707.620521597928018
98707.582040021094144
98707.550573204774992
98707.521645946777426
98707.490475181097281
98707.45415460212098
98707.411831582168816
98707.364831716389745
98707.316565444751177
98707.27115045512619
98707.231854171899613
98707.199875705264276
98707.174052580521675
98707.151302552534617
98707.128010723739862
98707.101955256584915
98707.073599710201961
98707.045763517962769
98707.021676539909095
98707.002416619172436
98706.985588559778989
98706.966360326725408
98709.31267001129163
98709.796377671285882
98710.301690585605684
98710.829344724887051
98711.38024378119735
98711.955320715453126
98712.555447835155064
98713.181358131172601
98713.833627166415681
98714.512755064133671
98715.219411139012664
98715.954736016108654
98716.720523783777026
98717.519156596405082
98718.353288224578137
98719.225729191573919
98720.138748944096733
98721.094188666102127
98722.091639310441678
98723.129775869121659
98724.198544752798625
98708.682122372090816
98708.576916933408938
98708.469675956512219
98708.361307010927703
98708.256262001727009
98708.160659539353219
98708.078588406700874
98708.009754218030139
98707.949608643379179
98707.892119719166658
98707.833085452555679
98707.772032530847355
98707.711900963753578
98707.656655935410527
98707.608670278335921
98707.567540394578828
98707.530115019399091
98707.491698530153371
98707.448034113927861
98707.396876360740862
98707.338886436540633
98707.277423256833572
98707.217851742490893
98707.165891151540563
98707.12547074451868
98707.097482181052328
98707.079471367105725
98707.066140924551291
98707.051423324970528
98707.031293870677473
98707.005473069715663
98706.97702889800712
98706.950159027284826
98706.927105723749264
98706.906331666265032
98706.883363005763385
98712.495952219338506
98713.031094679841772
98713.586206393869361
98714.1619379351323
98714.75924899536767
98715.379287448464311
98716.023210523315356
98716.692072735531838
98717.386786550079705
98718.108181934789172
98718.857124835049035
98719.634711057675304
98720.442406782283797
98721.282239996158751
98722.15652304678224
98723.067721997227636
98724.017733796703396
98725.008095323879388
98726.038362552935723
98727.107211248061503
98728.205445751256775
98708.636391231586458
98708.516945744719123
98708.398704167688265
98708.286191656967276
98708.184653331307345
98708.096896977120196
98708.021736220354796
98707.954771091041039
98707.891039404101321
98707.827425497976947
98707.763657971008797
98707.701927675734623
98707.644755824672757
98707.593062469139113
98707.545409953585477
98707.498467604935286
98707.448001290773391
98707.390449208265636
98707.324674805262475
98707.252589387207991
98707.178851771051995
98707.110150093416451
98707.053195745946141
98707.01222388514725
98706.987612815806642
98706.975729134253925
98706.969700222107349
98706.96200600604061
98706.947485575205064
98706.925167854729807
98706.897794299482484
98706.86947607640468
98706.842837735399371
98706.817200674471678
98716.238684248222853
98716.840671918020234
98717.461758774952614
98718.102905738080153
98718.765408998122439
98719.45069637420238
98720.160123636378557
98720.894879006315023
98721.656019088084577
98722.444557819515467
98723.261589039699174
98724.108364804051234
98724.98645849856257
98725.897652997693513
98726.844015752227278
98727.827171103417641
98728.848467778967461
98729.907480331807164
98731.002852628807887
98732.12628711956495
98708.692053653197945
98708.560991973310593
98708.434364304121118
98708.315896827029064
98708.208853265125072
98708.114244291427894
98708.030444757692749
98707.95422913422226
98707.882478727187845
98707.813615175575251
98707.747334677100298
98707.684221325005637
98707.624386058159871
98707.566897814031108
98707.509753475271282
98707.450298090232536
98707.385724520092481
98707.313999545847764
98707.235227819764987
98707.152229293642449
98707.070362154729082
98706.996602346393047
98706.937488133640727
98706.896653831950971
98706.873591566632967
98706.864065421468695
98706.861204733068007
98706.857457405072637
98706.847345176327508
98706.829113170591881
98706.804376444721129
98706.77609851010493
98706.746475759122404
98706.715833874302916
98719.400422728416743
98720.046458821219858
98720.710590708898962
98721.393630295497132
98722.096817674886552
98722.821648854820523
98723.569704074252513
98724.342465296169394
98725.141209779278142
98725.967022906261263
98726.820927307344391
98727.703994759605848
98728.617515667036059
98729.562809915369144
98730.54138528869953
98731.554374700805056
98732.602819231979083
98733.686372717784252
98734.803842576729949
98735.947975559596671
98708.611052402018686
98708.477944166981615
98708.354773729326553
98708.24189100060903
98708.138551305353758
98708.043788764131023
98707.956857808894711
98707.877084883337375
98707.80383798974799
98707.736115094085108
98707.671453577218927
98707.606726145211724
98707.539281971985474
98707.467761025531217
98707.391789532528492
98707.311395379831083
98707.226685823610751
98707.138626041036332
98707.049855036224471
98706.965055083739571
98706.890241722008795
98706.83083791428362
98706.789371221821057
98706.76454060357355
98706.752174432986067
98706.746635515984963
98706.742240673236665
98706.734518241792102
98706.720832069491735
98706.700232714792946
98706.673052138692583
98706.640476140120882
98723.192227102001198
98723.89718958499725
98724.620596266380744
98725.363447456358699
98726.127026520232903
98726.912742059212178
98727.72200926367077
98728.556136827188311
98729.41631499255891
98730.303661957601435
98731.219189147595898
98732.163962495731539
98733.138964305515401