/*--------------------------------*- C++ -*----------------------------------*\
  =========                 |
  \\      /  F ield         | OpenFOAM: The Open Source CFD Toolbox
   \\    /   O peration     | Website:  https://openfoam.org
    \\  /    A nd           | Version:  12
     \\/     M anipulation  |
\*---------------------------------------------------------------------------*/
FoamFile
{
    format      ascii;
    class       volScalarField;
    location    "0.006";
    object      pPrime2Mean;
}
// * * * * * * * * * * * * * * * * * * * * * * * * * * * * * * * * * * * * * //

dimensions      [2 -2 -4 0 0 0 0];

internalField   nonuniform List<scalar> 
106891
(
151889.03565788269043
151868.95754241943359
151856.37328720092773
151849.93335151672363
151855.33412933349609
151876.57744026184082
151923.2896842956543
151995.00657081604004
152094.98802185058594
152225.15408325195312
152367.59201812744141
509364.42594528198242
507696.33657646179199
506039.65549659729004
504386.10892677307129
502724.89486312866211
501046.04818725585938
499344.82356834411621
497622.97245788574219
495887.66551399230957
494148.29651260375977
492410.89740943908691
490675.34860992431641
488939.01150703430176
487202.20768356323242
485467.81888580322266
483737.22348976135254
482010.20120811462402
480287.57604598999023
478571.80011558532715
476866.73317718505859
475177.0380973815918
473504.71218490600586
471848.63848686218262
470209.3631420135498
468592.47665405273438
467006.33300971984863
465457.19991683959961
463946.83761215209961
462472.97382736206055
461029.4483528137207
459605.69904136657715
458190.35611152648926
456778.64936828613281
455374.27855682373047
453981.67648696899414
452597.76828193664551
451212.6613941192627
449816.69237518310547
153007.78676986694336
152805.16419792175293
152622.65417671203613
152458.21795654296875
152312.77375030517578
152189.85536003112793
152093.5228214263916
152025.45649909973145
151982.58218002319336
151957.48771286010742
151940.68974113464355
151925.8286190032959
151910.47661972045898
151900.07974052429199
151899.73846626281738
151920.40485000610352
151963.97283172607422
152035.04382514953613
152136.53541374206543
152250.67145919799805
507615.33346557617188
505950.5319995880127
504291.07348442077637
502623.38666152954102
500937.99267768859863
499233.39456558227539
497513.8715705871582
495786.84052848815918
494061.18844223022461
492342.35601806640625
490628.04050064086914
488913.19411468505859
487197.64009094238281
485485.3802661895752
483777.92811012268066
482073.31470489501953
480370.79044914245605
478673.3157844543457
476986.44338417053223
475315.36028480529785
473661.68453788757324
472024.8325138092041
470406.92717742919922
468813.9357738494873
467252.26786422729492
465724.72000312805176
464229.53942680358887
462762.13924598693848
461316.03542327880859
459881.86776924133301
458448.60665130615234
457009.6470775604248
455567.43840217590332
454129.6917552947998
452700.46600532531738
451275.55352210998535
153146.17807006835938
152943.7855339050293
152759.59353065490723
152591.11053085327148
152439.85497665405273
152310.45682716369629
152207.92373657226562
152134.38412094116211
152086.76619911193848
152057.36605262756348
152036.23626518249512
152016.09559631347656
151993.35102653503418
151971.89892959594727
151955.98821067810059
151956.04817008972168
151975.08209991455078
152018.6146068572998
152090.69281578063965
152174.61976051330566
507759.78903007507324
506061.97747611999512
504366.95101737976074
502660.70030403137207
500937.93451499938965
499203.36317825317383
497464.3956184387207
495727.98320770263672
494000.97797775268555
492286.42967796325684
490579.99032783508301
488875.80049133300781
487175.05470657348633
485483.66260719299316
483802.83227920532227
482127.19497871398926
480452.80899238586426
478782.7704963684082
477124.24151039123535
475482.88335800170898
473860.66934394836426
472258.00186729431152
470676.75014877319336
469119.94879150390625
467589.35721969604492
466084.32255554199219
464601.13008117675781
463134.24808883666992
461677.81889343261719
460225.13590049743652
458767.35223197937012
457296.84263038635254
455814.06556129455566
454328.60519981384277
452850.67421913146973
451381.73955726623535
153148.58454132080078
152963.1589241027832
152794.6656551361084
152642.24979209899902
152508.39200019836426
152396.75097274780273
152309.40691375732422
152244.64567565917969
152196.95068740844727
152158.61688423156738
152123.65913009643555
152088.62564468383789
152056.0582332611084
152028.53294563293457
152014.45074272155762
152016.28508377075195
152039.38870811462402
152088.37158584594727
152147.92080307006836
506433.30754470825195
504676.68630027770996
502904.27816200256348
501118.63352966308594
499331.65661811828613
497553.58787155151367
495789.63650131225586
494043.31011390686035
492315.31432151794434
490601.24670219421387
488896.99929809570312
487205.37896347045898
485532.9058837890625
483879.93559837341309
482238.81997299194336
480602.62743949890137
478972.52610969543457
477355.38574600219727
475756.83925628662109
474178.53567123413086
472620.39658355712891
471082.1839714050293
469563.23614883422852
468062.93159484863281
466580.17498779296875
465110.84975242614746
463647.04049110412598
462180.94830894470215
460707.26314544677734
459220.52216911315918
457715.03731155395508
456191.23244667053223
454659.59024238586426
453134.12020683288574
153697.92374992370605
153470.77437973022461
153272.47247505187988
153097.44848251342773
152941.81881332397461
152804.0208568572998
152684.22036170959473
152582.8319034576416
152498.6656379699707
152428.41182518005371
152367.24939346313477
152311.63601303100586
152259.49695777893066
152212.97898292541504
152173.35259628295898
152146.74051094055176
152134.38001441955566
152140.78900909423828
152170.8138542175293
152210.86954307556152
507115.22538375854492
505283.2367057800293
503431.94339370727539
501571.0289363861084
499718.04596519470215
497885.98688507080078
496079.31520652770996
494298.36686897277832
492542.79348945617676
490811.14261627197266
489102.15845680236816
487417.7451057434082
485761.21138763427734
484131.52440452575684
482521.6710376739502
480924.8113899230957
479341.07820320129395
477775.19949340820312
476229.59762954711914
474702.55765724182129
473190.83270645141602
471691.13358879089355
470201.84580039978027
468724.8099193572998
467262.55193519592285
465811.30613899230957
464359.06147766113281
462892.3194465637207
461403.50310707092285
459890.11993408203125
458350.87984085083008
456788.94045829772949
455216.4719066619873
153993.4679012298584
153767.94407081604004
153571.7115650177002
153400.17934036254883
153249.24893379211426
153116.21163368225098
152999.59963607788086
152897.96599769592285
152809.04397201538086
152729.73991394042969
152657.99241256713867
152592.63233757019043
152535.44760322570801
152486.64612007141113
152450.16229438781738
152425.69377517700195
152416.60488319396973
152427.75836753845215
152447.42679977416992
506188.05941200256348
504261.9804801940918
502329.1815242767334
500409.5329532623291
498518.68844795227051
496661.8577823638916
494837.43432807922363
493043.92862892150879
491282.82954025268555
489556.59054183959961
487866.8027515411377
486213.42986106872559
484593.66213798522949
483002.3936595916748
481435.9450798034668
479894.71743392944336
478379.71722412109375
476886.88578414916992
475407.4845142364502
473933.75785064697266
472462.73004913330078
470996.47100067138672
469541.25529861450195
468102.48109245300293
466675.7907886505127
465244.08593559265137
463786.97092628479004
462292.86391258239746
460761.12403678894043
459196.00558853149414
457605.31445503234863
456003.29401016235352
154765.60942459106445
154510.17364883422852
154285.33310890197754
154087.4676399230957
153912.42025947570801
153756.98307991027832
153619.43115425109863
153498.53397941589355
153392.54050445556641
153298.92001914978027
153215.94210815429688
153142.61695671081543
153080.01719665527344
153027.21931457519531
152985.92984008789062
152954.05726432800293
152933.28432655334473
152927.93187141418457
152927.47829246520996
505334.23814964294434
503335.1152172088623
501351.25943946838379
499400.05299758911133
497488.75666236877441
495615.0691967010498
493775.06618118286133
491970.18812942504883
490206.45804023742676
488488.48908424377441
486815.98892021179199
485185.56998252868652
483594.42319297790527
482041.46097946166992
480526.07345771789551
479044.28249168395996
477584.98019599914551
476133.56112861633301
474681.54780960083008
473230.76561164855957
471788.21461868286133
470360.58610153198242
468950.07215690612793
467548.75157737731934
466137.18502235412598
464693.00698661804199
463203.24728965759277
461667.9856014251709
460095.20954704284668
458496.42552185058594
155503.02468681335449
155250.43486976623535
155024.76797485351562
154822.78078460693359
154641.54373741149902
154479.21106719970703
154334.68755340576172
154207.05182838439941
154095.10989761352539
153998.14816665649414
153915.3692741394043
153846.87821578979492
153790.37007331848145
153745.4525032043457
153708.53964996337891
153679.64139938354492
153662.0792350769043
153645.51932907104492
504549.97847747802734
502499.84540176391602
500487.1876335144043
498521.74663543701172
496600.42748069763184
494714.10762214660645
492860.01599502563477
491045.67048072814941
489280.74258041381836
487569.96609878540039
485913.84823608398438
484310.30449104309082
482755.57231521606445
481244.94627571105957
479770.88794136047363
478319.34096145629883
476874.56563186645508
475430.07436561584473
473991.71232986450195
472568.45437049865723
471163.14162063598633
469771.43905830383301
468382.67032814025879
466979.95352554321289
465544.3369026184082
464063.52523803710938
462536.88345909118652
460972.39594841003418
156794.20688629150391
156514.98325729370117
156262.27973175048828
156033.86092567443848
155826.74385833740234
155638.38296890258789
155467.23573112487793
155312.91213607788086
155175.66418838500977
155056.26492500305176
154954.80928039550781
154871.08461570739746
154802.06985092163086
154745.97824096679688
154698.34925842285156
154657.95012855529785
154627.44435501098633
154596.77738761901855
503941.46089172363281
501868.7337703704834
499848.66863059997559
497878.15620994567871
495946.50784301757812
494049.20210838317871
492192.64827156066895
490387.39670372009277
488641.70266151428223
486958.99076652526855
485336.62088584899902
483767.44402694702148
482244.85076141357422
480762.55066871643066
479308.75008010864258
477867.82220649719238
476431.0970287322998
475001.56498908996582
473585.54989814758301
472183.6286735534668
470790.1416130065918
469396.13919067382812
467990.06027221679688
466559.3627872467041
465094.07849502563477
463589.2672176361084
462045.25395011901855
158157.46051788330078
157879.06302261352539
157623.21254539489746
157387.91453742980957
157170.88672828674316
156970.60038566589355
156786.87796401977539
156620.53057098388672
156472.87929534912109
156344.17718505859375
156233.95887184143066
156139.33975028991699
156058.65156745910645
155988.27094078063965
155926.93008232116699
155876.82485198974609
155827.3862419128418
507805.30814552307129
505650.14958953857422
503536.50900268554688
501473.4171085357666
499461.8291072845459
497496.64963340759277
495575.85209465026855
493704.29330062866211
491888.5566577911377
490131.71251678466797
488432.65330505371094
486787.14943695068359
485190.81496429443359
483642.36395835876465
482141.87658882141113
480682.69230651855469
479249.23280143737793
477825.85694313049316
476405.66604804992676
474989.33446502685547
473578.42479515075684
472172.23939323425293
470767.29919624328613
469356.85467910766602
467931.72537040710449
466481.74662399291992
464996.60519218444824
159875.3198299407959
159598.6666374206543
159338.6020622253418
159093.99833106994629
158864.59718132019043
158651.08817672729492
158454.42318344116211
158275.19106483459473
158112.58320426940918
157965.44318580627441
157831.60524559020996
157711.09739303588867
157603.1429443359375
157507.97506141662598
157427.9819507598877
157351.74430465698242
509252.39792251586914
507099.1124153137207
504985.46794128417969
502915.00602149963379
500890.62558364868164
498914.51449394226074
496990.04018592834473
495121.94247055053711
493311.94845581054688
491554.53982353210449
489840.84198188781738
488165.9925537109375
486532.44164657592773
484947.45219612121582
483416.0761604309082
481933.78687286376953
480485.4652042388916
479052.8327522277832
477623.61244010925293
476194.73812675476074
474769.3015022277832
473350.36404037475586
471936.46433067321777
470520.50042152404785
469091.91749382019043
467639.28873825073242
466152.66218376159668
464627.38006019592285
161367.14840888977051
161087.52362442016602
160822.16631889343262
160571.13062858581543
160334.64397811889648
160112.51505470275879
159903.94422340393066
159707.31109428405762
159521.80857849121094
159346.94136428833008
159184.70865631103516
159036.39081573486328
158902.94487762451172
158786.71756744384766
158676.85162162780762
508575.20810317993164
506472.97110366821289
504409.21967124938965
502385.48793411254883
500407.8056812286377
498483.24068641662598
496616.11182022094727
494803.85991477966309
493035.33806228637695
491297.30907249450684
489585.1347713470459
487906.87237739562988
486276.25354957580566
484701.72858047485352
483180.08612632751465
481697.02511405944824
480234.49716186523438
478779.76981735229492
477329.29441452026367
475885.9162425994873
474452.54448699951172
473026.59639358520508
471599.36114311218262
470158.42194938659668
468691.69235229492188
467191.61951637268066
465658.29084014892578
162985.79972457885742
162702.63223266601562
162433.91824531555176
162178.92452430725098
161936.23040199279785
161704.02986335754395
161480.40898132324219
161265.03101539611816
161058.43803215026855
160863.66159439086914
160683.15041542053223
160518.21907234191895
160371.31399154663086
160231.87981796264648
508148.02014923095703
506091.15180206298828
504068.34711265563965
502087.96944427490234
500159.03031921386719
498283.80831336975098
496455.94149208068848
494662.29115867614746
492889.2182502746582
491133.23684883117676
489405.5010871887207
487723.06173515319824
486096.31024551391602
484522.90722846984863
482990.19675445556641
481482.67386436462402
479989.54578399658203
478507.7080135345459
477038.97662162780762
475583.95469665527344
474138.04891204833984
472691.68632316589355
471232.83597373962402
469749.89972496032715
468236.51877021789551
466694.41446876525879
164745.50334739685059
164455.44234848022461
164178.55075454711914
163912.51570701599121
163655.08085250854492
163404.54612350463867
163160.98416709899902
162925.29915809631348
162700.72050476074219
162490.14546012878418
162295.3096809387207
162119.34455108642578
161952.49930000305176
507917.58613586425781
505891.37755012512207
503904.26333618164062
501966.26451301574707
500077.48590850830078
498228.42300224304199
496405.16946029663086
494595.84014701843262
492798.81254196166992
491025.7213191986084
489293.62516403198242
487613.50789833068848
485985.0119686126709
484398.95337104797363
482843.70813369750977
481310.72799110412598
479796.44501113891602
478300.5090274810791
476821.40742111206055
475353.31386566162109
473887.1820125579834
472412.63075828552246
470918.83069229125977
469398.06353187561035
467850.11760520935059
166657.33207511901855
166356.65331268310547
166066.00113868713379
165783.3075065612793
165507.43438911437988
165238.58554840087891
164977.18031692504883
164725.63943099975586
164486.68285179138184
164262.65756034851074
164057.92170906066895
163863.82633018493652
507805.97450256347656
505809.45787620544434
503860.39632225036621
501956.93275833129883
500087.0013370513916
498236.5011043548584
496396.51470565795898
494567.69606590270996
492760.41993522644043
490988.75985908508301
489262.85433578491211
487584.95496559143066
485950.99216079711914
484354.61986351013184
482789.44120597839355
481249.87118721008301
479731.78852462768555
478231.36175155639648
476743.21665382385254
475260.61339569091797
473775.34550285339355
472276.36944961547852
470752.76712226867676
469200.55730056762695
507825.2512149810791
505865.16724967956543
503947.2352466583252
502058.18205261230469
500184.40339469909668
498319.86544799804688
496467.18661880493164
494634.47053527832031
492831.84806060791016
491068.02501678466797
489348.45839691162109
487674.74383926391602
486045.34275436401367
484455.15278434753418
482896.01310539245605
481359.46906471252441
479840.04376220703125
478334.49330139160156
476838.65780067443848
475344.55484008789062
473838.98164749145508
472308.38861274719238
470747.89044952392578
506088.28702545166016
504180.62505912780762
502285.45753479003906
500397.53781890869141
498519.85011100769043
496659.95004653930664
494826.43682098388672
493028.06598472595215
491272.8297233581543
489565.85311889648438
487908.19961166381836
486295.56144523620605
484717.88142585754395
483163.87214851379395
481627.13135147094727
480106.05035209655762
478597.2192440032959
477090.28237342834473
475568.97312927246094
474019.71512413024902
472440.47812080383301
500706.12640762329102
498812.25066757202148
496944.52588272094727
495113.78136444091797
493328.41715049743652
491593.10478591918945
489908.6417407989502
488271.34482002258301
486671.66734504699707
485097.91660308837891
483543.06434059143066
482004.60230445861816
480477.23478889465332
478947.53408813476562
477397.9464282989502
475817.54702758789062
474209.19430160522461
495469.37255477905273
493709.92855262756348
491999.15721893310547
490333.93518447875977
488707.2796459197998
487109.41584968566895
485532.70869636535645
483972.04835319519043
482418.95369720458984
480857.84254837036133
479272.04280662536621
477654.55926513671875
476012.39076995849609
495890.79150390625
494154.82828712463379
492460.27124404907227
490803.89546394348145
489178.90608024597168
487576.66447067260742
485988.7838191986084
484404.27497291564941
482807.7639217376709
481185.14358520507812
479532.70942687988281
477858.89002227783203
687675.43109321594238
686211.75063705444336
684729.73944282531738
683203.58816528320312
681625.53455543518066
679996.34393692016602
678316.47006988525391
676583.64030075073242
674791.6344051361084
672930.60627174377441
670991.48137474060059
668972.2742862701416
666883.30110359191895
664744.2501335144043
662578.31328773498535
660408.18019676208496
658253.62472534179688
656128.36356735229492
654035.51251411437988
651968.20141410827637
690846.49594116210938
689388.05182266235352
687950.21435546875
686488.61250114440918
684977.28594398498535
683410.39401435852051
681789.46147727966309
680114.16744422912598
678379.13289833068848
676574.17529678344727
674687.09847259521484
672709.1160717010498
670642.24159622192383
668503.05917549133301
666317.70457649230957
664112.41625785827637
661908.90598487854004
659724.44767570495605
657571.75322723388672
655455.29295921325684
653369.90559005737305
651308.3773136138916
695470.48630714416504
693881.75840187072754
692382.26569175720215
690946.90217590332031
689530.02933502197266
688084.79117393493652
686584.76013374328613
685025.52435684204102
683409.71054840087891
681736.3559513092041
679997.27448081970215
678178.49473190307617
676265.30375862121582
674249.23189163208008
672136.04023933410645
669948.83213996887207
667720.39051628112793
665479.75198936462402
663247.11470794677734
661037.10356140136719
658861.1901798248291
656725.06968116760254
654625.14362335205078
652555.32469940185547
650516.97886848449707
648520.88319396972656
698469.04149436950684
696798.87329292297363
695226.91482353210449
693744.44127464294434
692325.74887847900391
690923.43524932861328
689488.67550277709961
687995.49150848388672
686440.24379348754883
684826.20022773742676
683151.93940162658691
681407.17574882507324
679574.77289009094238
677637.99393081665039
675588.56805229187012
673435.34349632263184
671206.78590393066406
668941.00865173339844
666670.04222106933594
664412.86801910400391
662181.28437805175781
659985.69003677368164
657832.89263725280762
655720.91420936584473
653644.52199745178223
651604.97856521606445
649611.64446067810059
647675.54280281066895
701363.42402076721191
699598.27574729919434
697940.43212699890137
696380.53724098205566
694910.80387687683105
693505.17014694213867
692114.31717872619629
690687.63464736938477
689198.79251670837402
687645.5523624420166
686031.48195648193359
684354.89528274536133
682603.79773139953613
680758.37772750854492
678799.76603126525879
676720.02954864501953
674530.84635353088379
672265.84696578979492
669968.00915145874023
667671.24849700927734
665393.60794448852539
663144.52731704711914
660933.41015434265137
658767.96098136901855
656647.4139289855957
654567.17070579528809
652528.20634841918945
650538.08327484130859
648606.0666332244873
646739.2055549621582
704158.57542419433594
702277.64093589782715
700523.31924819946289
698874.79076957702637
697323.67634963989258
695862.45898056030273
694465.2183723449707
693081.30147743225098
691658.65028953552246
690171.37367630004883
688617.98290824890137
687002.49383926391602
685322.72457313537598
683565.59705543518066
681709.39280891418457
679733.57532691955566
677630.30608749389648
675413.37130546569824
673119.99441528320312
670796.85761451721191
668479.9527587890625
666186.43995094299316
663923.53002166748047
661699.84055137634277
659524.00920677185059
657396.53581809997559
655313.3774242401123
653275.11643981933594
651287.69463348388672
649358.92474174499512
647495.39686393737793
645703.66553497314453
704848.97239875793457
702977.8436107635498
701230.72785949707031
699588.4069881439209
698043.41528511047363
696588.56975555419922
695197.45451545715332
693818.30879211425781
692398.25444030761719
690911.53232383728027
689357.47015762329102
687740.3144702911377
686057.52672004699707
684294.95950698852539
682429.14364051818848
680438.35677146911621
678315.18578147888184
676075.68484687805176
673760.33334922790527
671418.24801445007324
669086.18419647216797
666780.96151351928711
664508.35655975341797
662276.26850509643555
660094.0615177154541
657963.01993560791016
655879.05921936035156
653842.24693298339844
651857.62905311584473
649931.88083839416504
648071.56931686401367
646283.86406517028809
644580.98726654052734
819224.44205284118652
815979.08172988891602
812795.51224517822266
809710.23104667663574
806730.90713882446289
803868.53810119628906
705315.24610328674316
703450.27964782714844
701707.72904396057129
700069.25380897521973
698527.74440765380859
697076.0168285369873
695687.64287757873535
694310.25482749938965
692890.33818435668945
691402.47601699829102
689846.8339729309082
688227.52740669250488
686541.72355079650879
684774.94793701171875
682902.73770904541016
680902.36181449890137
678766.76781845092773
676513.29581260681152
674184.07132911682129
671829.64448547363281
669487.92502021789551
667175.21053695678711
664896.16357803344727
662658.31482315063477
660471.7774829864502
658338.3283634185791
656253.76877212524414
654217.85439491271973
652235.0522575378418
650311.24388694763184
648452.98801231384277
646668.16600227355957
644969.06058883666992
643376.09495544433594
822879.39469146728516
819644.70494079589844
816384.64386367797852
813188.19866371154785
810091.79039764404297
807102.79728698730469
804231.61347961425781
705563.22261810302734
703701.20499610900879
701960.76680183410645
700323.91446113586426
698784.19169616699219
697334.25374031066895
695947.26771354675293
694570.73042488098145
693150.69083786010742
691661.87518119812012
690105.09986114501953
688484.43986511230469
686796.6878490447998
685027.20182800292969
683151.10424423217773
681145.03282356262207
679002.2303295135498
676740.92900276184082
674404.38994789123535
672043.84951019287109
669697.25900459289551
667380.76108169555664
665098.83315277099609
662858.59742164611816
660670.40457725524902
658536.35906600952148
656452.08295440673828
654417.00344276428223
652435.35832595825195
650512.8769416809082
648655.86621475219727
646872.87064552307129
645175.88740348815918
643585.16940879821777
642115.35837173461914
152016.69965362548828
151953.78133964538574
151912.02873039245605
151893.77341270446777
151902.68766784667969
151936.79250144958496
151998.79026031494141
152082.87826156616211
152189.7103157043457
152321.31476020812988
152462.69661521911621
508064.76137542724609
506284.20597267150879
504508.02902603149414
502726.66744613647461
500935.32505226135254
499137.09831237792969
497337.46888542175293
495540.28319931030273
493748.97043609619141
491965.13808441162109
490187.53334808349609
488414.10137367248535
486643.40461730957031
484874.81707572937012
483110.14375877380371
481354.11320686340332
479610.61225700378418
477880.56074333190918
476165.75407600402832
474472.08233833312988
472806.75873184204102
471172.76259231567383
469567.30027961730957
467985.35671234130859
466425.55264663696289
464890.91053009033203
463382.94288063049316
461895.35287666320801
460417.1033935546875
458942.34940719604492
457474.39888191223145
456019.62579917907715
454580.87285423278809
453156.39477157592773
451741.32437705993652
450328.54619789123535
153588.8448371887207
153319.29893493652344
153081.42800331115723
152874.49117088317871
152696.15834426879883
152542.47727584838867
152408.4263973236084
152289.09740447998047
152181.18071556091309
152083.70652008056641
151998.25418090820312
151927.57865333557129
151875.6671085357666
151844.66889572143555
151837.9778938293457
151853.97147941589355
151895.52382850646973
151957.88439178466797
152042.01785850524902
152150.16864013671875
152267.72878074645996
508144.7180004119873
506348.67233276367188
504562.20614624023438
502770.75235939025879
500967.04890632629395
499155.84628295898438
497346.19961738586426
495544.57615852355957
493754.55423164367676
491976.76387786865234
490209.27517318725586
488450.89017105102539
486701.71704292297363
484960.64216995239258
483226.8885555267334
481502.60762977600098
479790.24386405944824
478089.00113487243652
476397.59951782226562
474719.19816780090332
473061.36837768554688
471430.01458740234375
469824.93350791931152
468241.77498245239258
466678.35041999816895
465137.18328857421875
463619.76079940795898
462119.14768028259277
460623.12225914001465
459124.88911437988281
457627.22020149230957
456136.60056114196777
454657.01689720153809
453187.82761764526367
451723.71207046508789
450256.23871421813965
153758.20843505859375
153478.19775009155273
153229.17702102661133
153010.76820373535156
152821.52362632751465
152658.50469970703125
152517.27712440490723
152392.65407752990723
152280.19049453735352
152177.39299392700195
152084.53350448608398
152003.77028465270996
151938.96149826049805
151892.51601219177246
151867.90761566162109
151864.02641296386719
151883.8111629486084
151923.20853996276855
151983.0994873046875
152065.39812469482422
152155.68570518493652
506643.06041526794434
504836.17375373840332
503025.51797294616699
501202.77668762207031
499375.72123146057129
497558.38877487182617
495759.61684417724609
493979.57145309448242
492212.87969017028809
490455.37089729309082
488709.74599838256836
486982.63926315307617
485275.13275718688965
483581.71388816833496
481897.28080558776855
480219.96117210388184
478547.61296081542969
476878.21135330200195
475215.06338500976562
473567.60934257507324
471944.47319030761719
470346.21100807189941
468765.90375709533691
467197.94638442993164
465643.97311592102051
464107.83295631408691
462585.88517761230469
461067.48196220397949
459544.43355941772461
458016.65205955505371
456488.71041679382324
454964.41984748840332
453443.75721740722656
451922.02597427368164
153766.32629585266113
153503.7002067565918
153270.11538505554199
153065.63756561279297
152888.97763252258301
152736.79726409912109
152603.9467601776123
152484.87347030639648
152375.29032135009766
152273.6882209777832
152181.14241409301758
152101.18008804321289
152036.7566032409668
151991.98745346069336
151966.85926818847656
151964.80836296081543
151982.55445861816406
152020.65141868591309
152080.09243202209473
152145.79682731628418
507073.62165451049805
505233.51712989807129
503394.01459503173828
501549.0252742767334
499709.50130462646484
497891.52022933959961
496101.91532135009766
494335.06108665466309
492580.12343215942383
490832.53145790100098
489100.90060997009277
487399.60657691955566
485731.98318862915039
484086.33490943908691
482447.7263240814209
480807.78815078735352
479163.65397071838379
477516.26448631286621
475872.91592216491699
474246.09393310546875
472644.52559852600098
471065.01663398742676
469495.0944652557373
467925.59960746765137
466358.58431053161621
464802.07821846008301
463258.45384216308594
461720.28201103210449
460176.92976951599121
458622.79029655456543
457058.93445205688477
455489.11521530151367
453915.47044372558594
452336.26849174499512
154191.10933685302734
153913.04056549072266
153662.68188858032227
153441.54228210449219
153249.69854927062988
153084.56330299377441
152940.90399932861328
152812.3547420501709
152693.42531585693359
152581.4146728515625
152476.50558090209961
152381.61687088012695
152299.51230430603027
152234.24048042297363
152186.5834846496582
152160.8372917175293
152155.47225379943848
152171.90131378173828
152211.02471160888672
152257.18986129760742
505763.9014892578125
503884.7979793548584
502013.60017395019531
500160.93343734741211
498338.58378791809082
496548.52387237548828
494781.7578125
493027.01722717285156
491282.9217357635498
489562.90708541870117
487884.88910865783691
486252.55876350402832
484648.87498664855957
483049.93217086791992
481441.06902885437012
479819.93518829345703
478192.77986335754395
476573.13662338256836
474976.18879127502441
473406.78634834289551
471853.42075729370117
470297.54457473754883
468728.7961254119873
467151.48099708557129
465578.19925117492676
464017.05707168579102
462463.48021697998047
460903.67932891845703
459326.0918140411377
457728.97862815856934
456118.11904525756836
454499.360107421875
154482.39635276794434
154213.20901679992676
153973.86138725280762
153765.24204254150391
153584.87939071655273
153427.27584075927734
153285.71450805664062
153154.48247528076172
153030.66947746276855
152914.20653343200684
152807.43702125549316
152712.3983039855957
152631.98471260070801
152566.36837387084961