/*--------------------------------*- C++ -*----------------------------------*\
  =========                 |
  \\      /  F ield         | OpenFOAM: The Open Source CFD Toolbox
   \\    /   O peration     | Website:  https://openfoam.org
    \\  /    A nd           | Version:  12
     \\/     M anipulation  |
\*---------------------------------------------------------------------------*/
FoamFile
{
    format      ascii;
    class       volScalarField;
    location    "0.006";
    object      rho;
}
// * * * * * * * * * * * * * * * * * * * * * * * * * * * * * * * * * * * * * //

dimensions      [1 -3 0 0 0 0 0];

internalField   nonuniform List<scalar> 
106891
(
1.1503014441451782091
1.1502251327450250251
1.1501539006342214044
1.1501008703719186599
1.1500782570689953577
1.1500870678491581511
1.1501276917935046029
1.150191855696992782
1.1502685768010310063
1.1503438979960103339
1.1504017266593853375
1.150589279593182912
1.1505256849434353228
1.1505191842806132829
1.1506133603666526266
1.1508001111142509565
1.1510109262621146531
1.1511596815881937061
1.1511953793140137225
1.1511269001904651521
1.1510105321947601276
1.1509027295467926244
1.1508240212899203403
1.1507551266097155729
1.150662857400532868
1.1505293152656761446
1.150370206899431702
1.1502218470004226258
1.1501174787341570394
1.1500760480841270006
1.1500965027020100262
1.1501642697929630454
1.1502556537025769856
1.1503425105102209614
1.150398702810270013
1.1504082330623246477
1.1503721581211099334
1.1503133350347725106
1.1502661557591808972
1.1502541843491114193
1.1502700075539964431
1.1502722550417778802
1.150210916179703835
1.1500648860469315782
1.1498662164872432978
1.1496871443519636191
1.1495988733863597986
1.1496297061660214478
1.1497477543081235929
1.1501140718657865136
1.1501646245792760404
1.1502159975294541372
1.1502633896438381189
1.1503001196785478388
1.1503190554794047173
1.1503146445279894827
1.1502840895578791969
1.150229068535236987
1.1501568404672690704
1.1500780533780898818
1.1500051783119473736
1.1499484808178932482
1.1499196932481585698
1.1499209418256424176
1.1499546781897891368
1.1500138297562803036
1.150088360489206929
1.150166195900401922
1.1502295703082905387
1.150528720278823247
1.150567217843246226
1.1506845317087976976
1.1508637287034484409
1.151046289468299344
1.1511643444820380822
1.1511827385282487057
1.1511217002303790746
1.1510306096351927696
1.1509536120596275399
1.1509021530857879156
1.1508531794212846222
1.1507770551579625806
1.1506597854771931644
1.1505178067750985171
1.150388604848697538
1.1503043445459930627
1.1502771011032633108
1.1502981318095768515
1.1503465911946613165
1.1504009902339769056
1.150443796679120112
1.1504663647877346744
1.1504696650938772695
1.1504641443339402862
1.1504690980620631002
1.1505030739386790106
1.1505685208607523418
1.1506397364873133249
1.150669162108316268
1.1506140489525500392
1.1504638687748924841
1.1502540922389481448
1.1500534186234649958
1.1499284541543259852
1.1499071873717274794
1.1500827877809338684
1.1501346433958379301
1.1501731693336119111
1.1501957202271932967
1.1502002622278659771
1.1501857342459000932
1.1501524072416402511
1.1501018077023965613
1.1500364893786638731
1.1499608240192504827
1.1498813240882510556
1.1498067589269262978
1.1497447887155129997
1.1497057944408273222
1.1496927320807863726
1.1497113471639455184
1.1497579844931997695
1.1498257918742949002
1.1499065693125569698
1.1499808687059538403
1.1505312459745331566
1.1506030316859250373
1.1507280746003596406
1.1508851130206863012
1.1510256012524073821
1.1511087871059832999
1.1511258821097560823
1.1510994044544176074
1.1510628129219384608
1.1510385312451079098
1.1510225319138811528
1.1509880887869186061
1.1509114485805997941
1.150793235208763976
1.1506605453559504149
1.1505527459169391236
1.1504951148811759509
1.1504864474985707634
1.1505046176173776562
1.1505206467641322376
1.1505168423887457418
1.1504949773024335524
1.1504709408094684342
1.1504660989529342796
1.1505005206337748369
1.1505840778439184735
1.1507131476533440928
1.150864285107817242
1.1509952275416222012
1.1510573330983933094
1.1510154274301662713
1.1508678173106581255
1.1506531769361660889
1.1504345468754344495
1.1502712290208236823
1.1501935355672092687
1.1500579570949340802
1.1500785077507209575
1.1500725045809796487
1.1500432801048841025
1.1499959889937501067
1.1499361733784640993
1.1498685085296851405
1.1497957843069173123
1.1497194248925441951
1.1496409160112812664
1.1495637774492768468
1.1494926482303511328
1.1494372978394962193
1.149402689645663056
1.1493990739672761414
1.1494274356787976821
1.1494846730021808234
1.1495667238598441529
1.1496531092994426437
1.1505968896898151055
1.1507245193666839622
1.1508517144498071616
1.1509511261263878357
1.1510126364365569351
1.1510471626769267495
1.1510747164292050027
1.1511106969568050129
1.151150536951547565
1.1511724813565473724
1.151149488726563419
1.1510717858461505525
1.1509562598579310411
1.1508404490296080258
1.1507610555634328886
1.1507356813178717392
1.1507503674983980968
1.1507664555428971376
1.1507494902286794503
1.1506925318583214324
1.1506158132048673881
1.1505548444255828677
1.1505472896989166198
1.1506170491140768064
1.1507640947361674755
1.1509664035639506352
1.1511808890442902786
1.151353297785001395
1.1514338268005277488
1.1513944452608222413
1.1512424751946435109
1.1510205492573741815
1.1507879157569425033
1.1505961904816031094
1.1498801310280946097
1.1499141722504528929
1.1499135185994802111
1.149881266354736864
1.1498250733192976192
1.1497546784731562663
1.1496786963579737062
1.149602706282330411
1.1495282052538269291
1.1494533884063040663
1.1493754903647652732
1.1492937260631372887
1.1492102737880824925
1.1491346465450795744
1.1490743573417121492
1.1490444451079380173
1.1490509915491298187
1.1490951654697676432
1.1491769441069110691
1.1492742062517720125
1.1506004618087040114
1.1507205473539992013
1.150806211441061766
1.1508568107747618736
1.150894045220864248
1.1509467507046706736
1.1510322641128074572
1.1511446137237031362
1.1512548508641335943
1.1513243596649949119
1.1513258994600170659
1.1512621222807803978
1.1511590572335521632
1.151054409909443077
1.1509850874971903067
1.150961713311953627
1.1509619030930593464
1.1509493143290208117
1.1508988328465565854
1.150810903825978615
1.1507139541474173949
1.1506502056993248573
1.1506579484594605667
1.1507576979380103044
1.150944945280417242
1.1511875765277022055
1.1514335568795084352
1.1516242496638520176
1.1517115810385933905
1.1516747483411553521
1.1515286047875936681
1.1513165874456874338
1.1510913867467991167
1.1496945912621563402
1.1496729930540736664
1.1496241720746860349
1.1495572227072829996
1.149482724165585168
1.1494086847012456865
1.1493384870646703444
1.1492705100826692277
1.1491996250886724606
1.1491203812771422221
1.1490303307896505558
1.1489317663119897883
1.1488354002239475893
1.1487514147909698714
1.1486978824336446792
1.1486838575049360678
1.1487135726029340521
1.1487909947033878577
1.1488932095226960239
1.1506788635429172629
1.1507221799337641333
1.1507373092442609863
1.1507659889789905172
1.1508457964438150167
1.1509869624315491876
1.1511696754947311483
1.1513504451123373062
1.1514798425709225072
1.1515291927857189691
1.1514963710098151672
1.151406701019400014
1.1513031855371973489
1.1512169161058800615
1.1511560451439231123
1.1511101532099126121
1.1510603223654876093
1.1509932001332463525
1.1509141933538149516
1.1508459404692847894
1.1508156986663324872
1.1508473178925613389
1.150953443772846807
1.1511278330195202635
1.1513446777266991283
1.1515624064834122375
1.1517310431651270886
1.1518089654290999402
1.1517805433672956283
1.1516619184160219458
1.1514915165005534803
1.1513134819368529005
1.1493944833748852563
1.1493607183332188448
1.1493128390122153704
1.1492585095376719462
1.149204783877218361
1.149155001367740514
1.1491076827892867662
1.149057079589073993
1.1489955861387970426
1.1489171433754481466
1.1488199855049567866
1.1487083233672710225
1.1485949102332235761
1.1484928137938021919
1.148422292322824001
1.1483941551097871514
1.1484136482142930369
1.1484863393139597143
1.1485880820633558308
1.150722163106382645
1.1506942826927017975
1.1507047357877548954
1.1507871935644513606
1.1509476663909339322
1.1511612113172462468
1.1513849550519255072
1.1515665818896152484
1.1516675514106928802
1.1516715741953587049
1.1515972363029345349
1.1514827074682596475
1.1513620126209791472
1.1512559711948342489
1.151172085813118029
1.1511095584045376583
1.1510658841251562023
1.151040695217653953
1.1510360777708352753
1.1510569335988187767
1.1511058188326184215
1.1511841493697623218
1.1512946980514511264
1.1514321768087028008
1.1515754257329542387
1.1516923226661290869
1.1517537865983389356
1.1517482236790732575
1.1516883940989179891
1.1516037820700539829
1.1489908797559928999
1.1489639092736492199
1.1489436710093297034
1.1489309593569803081
1.1489221628645229778
1.1489101600958220306
1.1488857261573843793
1.1488404217665206808
1.1487700072997366618
1.1486757397893012644
1.1485647037913291335
1.1484510126111020512
1.1483487958972884435
1.1482775363023791648
1.1482474576245207398
1.1482631301141286162
1.148330420582305722
1.1484247775685063608
1.1507700632283643927
1.1507573149649126254
1.1508154889783399621
1.1509538754284940332
1.1511573656592684056
1.1513905622686582131
1.1516041846424647233
1.1517423578013383789
1.1517763976543446969
1.1517164993782882387
1.1516008708528999716
1.1514736437067614183
1.1513658553895687042
1.1512924878773289628
1.1512538667295342254
1.1512440585110432778
1.1512580621632899636
1.151289004658196502
1.1513272293014378267
1.151364889942298575
1.1513997911721929324
1.1514361244783954952
1.151479688150156333
1.1515300921015747537
1.1515787199278526565
1.1516167293731585097
1.1516421007101087515
1.1516619297171573066
1.1486125302141980686
1.1486185103236030702
1.1486420873705538437
1.1486774111989630498
1.1487141260326727554
1.1487404461634667108
1.1487455485800681654
1.1487219385367826163
1.1486680939355464748
1.1485888284248102487
1.1484944238906724667
1.1483998328614890561
1.1483188452074264418
1.1482674709765388066
1.1482525715273184108
1.1482751689161592168
1.1483388440668242936
1.1484187969181194333
1.150925189574381502
1.1509386075522836101
1.1510170022914640864
1.1511657544911091389
1.1513668988993577269
1.151569779197689769
1.1517172927292742557
1.1517671522423709174
1.1517277094546594096
1.1516419039188412476
1.1515598405078399935
1.151513797420486096
1.1515046209301738056
1.1515149064231380294
1.1515264652937489132
1.1515328334894563422
1.1515414989441485893
1.1515580898911685903
1.1515764504799634871
1.1515847007500656929
1.1515763579867293043
1.1515523189091187994
1.1515233691710526909
1.1515048919660499926
1.1515099489440154823
1.1515498194881073069
1.1516288640764666962
1.1483378781485418241
1.1483972620241400531
1.1484693528412996955
1.1485409131077093381
1.1485987883549844124
1.1486320473178073254
1.1486346907584097377
1.1486076018490005701
1.1485578024338740644
1.148497010622580472
1.1484393349149859542
1.1483964859365378697
1.1483786082120817085
1.1483875058824688509
1.1484191250413882113
1.148473291694725118
1.1485264792560752056
1.151199862173025501
1.1511543668779411487
1.1511350510992839347
1.1511617350761806922
1.1512554520415965165
1.151408488746508807
1.1515801512919245919
1.1517099959919390173
1.1517631720937184792
1.1517450726322211452
1.1517033021085878453
1.1516894288579893058
1.1517218711169452394
1.1517793048167652703
1.1518231533532468092
1.1518311607966513765
1.1518107858502899532
1.1517854458250476046
1.1517744282805411071
1.1517766576424182112
1.1517706618716012645
1.151731258594874463
1.151652310563968884
1.1515539117121884605
1.1514713024534675156
1.151436478818208542
1.1514659444119492715
1.1482327505243892229
1.1483172017233407303
1.1484038834361882664
1.148481875041255762
1.1485424021868515521
1.1485807951142743555
1.1485976632718875035
1.1485983128374583906
1.1485914330176814069
1.1485857924092623961
1.1485874341688968592
1.1485990881806078523
1.1486188631131095672
1.1486403189823264359
1.1486621196776944931
1.14866684799931984
1.1514601688135945867
1.1514098553123550683
1.1513597264896926475
1.1513397618451821636
1.1513818317189437046
1.1514839708134658736
1.1516088301055089627
1.1517042540206172685
1.1517423200517933335
1.151734954204393091
1.1517225518220766123
1.1517486243481378505
1.1518279483719688905
1.1519355010987004651
1.1520281863458963212
1.1520808559383437508
1.1520982008052766954
1.1520991448228947718
1.1520956880985810944
1.1520778448989685838
1.1520239392152429314
1.1519201028663113018
1.1517787556096288348
1.1516366269499807018
1.1515336919499046253
1.1514912027263735084
1.1515054425459534393
1.1515612063681546218
1.1482311258514548147
1.1483122113306669654
1.1483962870640347376
1.148477238788224275
1.1485502252661285993
1.1486125383325926919
1.1486634772657191572
1.1487043647464603158
1.1487362970316257194
1.1487604412609493387
1.1487757680415076056
1.1487810125252917448
1.1487714597212717038
1.1487484201589692745
1.1487040700967836582
1.1515743616181386422
1.1515055704248056134
1.1514677672675235343
1.1514941300227130583
1.1515838002287401842
1.1516980445301359115
1.1517889530140468235
1.1518283628455703305
1.1518259868570899229
1.1518192108352047764
1.1518449598149480551
1.1519160820701159764
1.1520172961942058976
1.1521223555623856249
1.1522145555499583303
1.1522878689349689285
1.1523382156621502226
1.1523493764843069087
1.1523022445119797119
1.1521849720395247463
1.1520107357225464195
1.1518210693084174334
1.1516636662407571112
1.1515701684246277825
1.1515420964174953866
1.1515540556507424252
1.1515791023305410601
1.1482604682780606087
1.1483436536718105714
1.1484370113835338234
1.148534207233087745
1.1486281409467882231
1.148712159348793671
1.1487813762246905647
1.1488312670588154418
1.1488599273663546718
1.1488647072264228655
1.1488466535399270985
1.1488041712574601494
1.1487420280420681529
1.1486610694009591338
1.1516110607838334623
1.1515488794481600898
1.1515567614771906602
1.1516345097052316238
1.1517434795677738979
1.1518359191214366799
1.1518829269926109671
1.1518883548621769997
1.1518817210697214204
1.1518946195664059307
1.1519408073446539831
1.1520188326454428029
1.1521262793556774628
1.1522571397360179546
1.1523939703933878675
1.1525010712456582596
1.152536540347074645
1.1524699881897324527
1.1523041376228519983
1.152083211456002898
1.1518720696853026464
1.1517264382499450281
1.1516649688291022979
1.151662209154300287
1.1516708048021708777
1.1516591690691011518
1.1483282469671527437
1.1484255932217655172
1.1485349384375667103
1.1486456399267086503
1.1487461751835539303
1.1488266725765803322
1.1488782489282003407
1.148897216869306348
1.1488804410989468252
1.1488324992495384524
1.1487564993280776626
1.1486614377776191986
1.1485552332249344687
1.1515971181324373696
1.1515849186526267989
1.1516554348768670568
1.1517713967634868322
1.1518809408768426739
1.1519507446079206847
1.1519798709387063518
1.1519904798560904879
1.1520024363383360999
1.1520285474835529893
1.1520806611805782804
1.1521712966137902523
1.1523041015539725596
1.1524582409580743647
1.1525862637217860751
1.1526291247680535701
1.1525487362209134723
1.1523588548243763885
1.1521231615757336897
1.1519237631833472157
1.1518170031233876394
1.1518026571962951543
1.1518297217966775303
1.1518348796652564392
1.1517868547830683035
1.1484500727729063385
1.1485559541959702301
1.1486638663962798201
1.1487599308792291186
1.1488314801293499912
1.1488679039338562937
1.1488661078322559561
1.1488239873249121992
1.1487490438394203363
1.1486475722661515508
1.1485313963155951988
1.1484137153498763517
1.1515823450781157433
1.1516408956845478606
1.1517575077561970076
1.1518797404483087643
1.1519723527516545492
1.1520281732525510243
1.1520625974307776573
1.1520914504441874815
1.1521228261810323446
1.1521677964581873432
1.1522424629117213879
1.152355437796114046
1.1524919831125368663
1.1526075612802411108
1.1526434626445840603
1.1525630254075835968
1.1523832521777521709
1.1521728953390735217
1.152016038154471067
1.1519607104484301807
1.1519913481138395195
1.152041193486401216
1.152039249577787805
1.1519588842644439275
1.1516373012906919726
1.151757016416191437
1.1518913826061476513
1.1520023884470940168
1.1520816047046025243
1.1521400142231268404
1.1521895379131334991
1.1522333869108123405
1.1522736272385227796
1.1523194625627115606
1.1523827586437240811
1.1524620670692342639
1.1525310762784657381
1.1525468251671975306
1.1524785418373275636
1.1523385392872005362
1.1521857769825536444
1.1520905619560559696
1.1520888892252656444
1.1521562466590975493
1.1522227900196664319
1.1522191885678194634
1.1521248373271908427
1.1518723956828049726
1.1520019426143379704
1.1521064813450916375
1.1521943143038724244
1.1522724234382890618
1.1523380699454175424
1.1523828656535544113
1.1524044002500897221
1.152416187084560395
1.1524340516054230044
1.1524550532831019378
1.152455554333497556
1.1524138369094210077
1.1523337048723025777
1.1522515103564225925
1.152216291644268642
1.1522505079697253905
1.1523301923613837872
1.1523943963549472258
1.1523859916906780132
1.1522909267449357174
1.1523694514209894546
1.1524463694971418537
1.1524814828746305917
1.1524704995551540154
1.1524326589603164361
1.1523953785021792129
1.152375349155270623
1.1523690585398611574
1.1523606247685680426
1.1523426856704559462
1.1523261957154349311
1.1523353367757298571
1.1523831553136107964
1.1524523087119267206
1.1524997474292919541
1.1524873808498075078
1.152407143175223192
1.1524032789355513895
1.1523355855070722686
1.1523030646852798764
1.1523117726129894489
1.1523452623106893444
1.1523833282224618113
1.1524178360792487474
1.152451909461149171
1.1524915478205675079
1.1525299158311257397
1.1525485569908981986
1.1525302155880658983
1.152471567450265244
1.152276129883837319
1.1522542448717625341
1.1522910164353690199
1.1523662088052202268
1.1524485220203868341
1.1525148767160877661
1.1525558911510778159
1.1525732541126878505
1.1525722375176499224
1.1525581957993524806
1.1525323702020402461
1.152496131720182726
1.1423616888387400081
1.1428043311956121997
1.1436076036862288241
1.1445532245605116728
1.1454548456684328084
1.1461742179213005866
1.1466310113404674098
1.1467969301973885976
1.1467085351214156841
1.1464641697574935453
1.1461914937714678953
1.1459944363386780353
1.1459074030629883278
1.1458873963603228852
1.1458546804460514323
1.1457559057385577894
1.1455768968450736889
1.1453340746474105494
1.145044364455498842
1.1447223104282073791
1.1429809069038578961
1.1425195320031684698
1.1425985911569385145
1.1431029674473327518
1.1438669391510576379
1.1447303853020056597
1.1455635282339162728
1.1462509060583565557
1.1467021554899206048
1.1468777983483171568
1.1468081997174992548
1.1465889746854325271
1.1463381319527854441
1.1461382885358117889
1.146010872451167284
1.1459239648007850665
1.1458324168421010203
1.1457044404553367034
1.1455205589235173402
1.1452755769939728658
1.1449749400702646795
1.1446384640183409065
1.146001505110099572
1.1447775666451329712
1.1436804725440330444
1.1429551158981912096
1.1426890369238142942
1.1428434123783450804
1.1433253735524180339
1.1440345517666743458
1.1448661034895237787
1.1456961809699413024
1.1463872254215627944
1.1468280015710221598
1.1469800237370082474
1.1468882833882823036
1.1466611982697367811
1.146410127010095481
1.1462051409016624781
1.1460587728506868022
1.1459399595169070807
1.1458077914301754152
1.1456274267363832919
1.1453826957302002398
1.1450840389470673397
1.1447567716347779587
1.1444316329996886417
1.1441295712158046083
1.1463480926984703778
1.1453449002642051013
1.1442276878166841581
1.1432970185107749206
1.1427398761570619623
1.1425948860356700543
1.1427873366430516544
1.1432238255293034612
1.143831389765328943
1.144546974595366251
1.1452857239768652331
1.1459355682935605802
1.1463914100363097326
1.1465946606878962832
1.1465668878513284312
1.1463931083147484991
1.1461797235960728969
1.1459999112170320412
1.1458778537101905748
1.1457817298370076564
1.1456595837397427484
1.1454726291253747306
1.1452142313995075096
1.1449168582567319508
1.1446290311750515478
1.1443772177372895094
1.1441656021313719727
1.1440078577215213596
1.144518672525193459
1.1435298407209768534
1.1426798869975725026
1.1422012960032019713
1.142238153256735389
1.1427495030105210283
1.1435070095356278941
1.1442322455956093208
1.1447428598206128569
1.1450165815236201805
1.1451447424048499801
1.1452377807887126338
1.1453629522352248848
1.1455182179780531992
1.1456660874390589555
1.1457673574160129881
1.1458195118203184926
1.1458436537559517632
1.145857556197459326
1.1458622461799432557
1.1458289560764738368
1.1457302765946819623
1.1455687528094342653
1.1453906050820270579
1.1452788780088249965
1.1453043974719347986
1.1454719392577226156
1.1457310634039448161
1.1460232074720200224
1.1463382256691163619
1.1450920519816059073
1.1447680137043574344
1.1443874735738228665
1.1440646917098080682
1.143936038881920858
1.1441046776109635719
1.1445261225835896557
1.1450232039203662726
1.145399779956116415
1.1455711698168080659
1.1456120415460113726
1.1456764488090833698
1.1458884603138597136
1.1462790192753757879
1.146783637600231387
1.1472913306437324543
1.1477107195578053478
1.1480152440071325071
1.1482380017820088547
1.1484326934927819863
1.1486242576277285732
1.1487974123123778636
1.1489083817242891072
1.1489336998585299998
1.1489006483584229823
1.1488820735606830592
1.1489377071195399083
1.1490590387023047469
1.1491702273027317727
1.149203014399378997
1.14916556012668436
1.1491351027392677775
1.147302900048006169
1.1470428922927218274
1.1466792919295156761
1.1463243544357366588
1.1461568672753466025
1.1462994413588740716
1.1467274804231044616
1.1472536505463517553
1.1476616689873229138
1.1478488337060226421
1.1478837349696124903
1.147926805929464722
1.1481028428682029663
1.1484431831769084109
1.1488740341868484141
1.1492732186428027408
1.1495436082406158551
1.1496638158586658385
1.149683800173785686
1.1496800365242614284
1.1496919036025896599
1.1497008556858765438
1.1496525737217739849
1.149506582434890456
1.1492906836335934351
1.1490889295530255509
1.1489745333764564972
1.1489421457546893368
1.1489074240013439354
1.148787643351911969
1.1485960015191438721
1.1484307416356644982
1.1483930101676125268
1.1450635314611754545
1.1448695621735969219
1.144418599792562663
1.144085477276410856
1.1440320709418676515
1.1442909963647915905
1.1478089576698449203
1.1474930015324218413
1.1470503036458048474
1.1466039192692409898
1.1463496761716656103
1.1464185299061750989
1.1467899944992820949
1.1472632042355788151
1.1476047637748310049
1.1477084593496360565
1.1476491645908093453
1.1476000799941397101
1.1476980234537557113
1.1479781615765760616
1.1483611156681328147
1.1487133087719791913
1.1489287138648429654
1.1489821181011181661
1.148931254314514927
1.148862276353820322
1.1488224876844910227
1.148792493291174166
1.1487085501219767014
1.1485231144842862339
1.1482624276612853897
1.1480183889346546877
1.1478747869228911327
1.1478267469558132152
1.1477790925759299157
1.1476404337598686833
1.1474234773905451767
1.1472399046162347069
1.1471980515981847759
1.1473202387500915922
1.1468007956024954819
1.1471989947969836177
1.1469906256325337335
1.1465157523126250361
1.146160515989480988
1.1460850973483873716
1.1463234181478210161
1.1476041153982543541
1.1472630293902696952
1.1467847943304352309
1.146301246445118327
1.1460142059991609287
1.146063946018599955
1.1464235512102654013
1.146888313929626646
1.1472139085843651163
1.147295502390665245
1.1472105568969026557
1.1471400462972729528
1.1472285824165844303
1.1475069867081599817
1.1478940749426005397
1.148249257996730277
1.1484609322208034765
1.1485054061942114867
1.1484425325718898847
1.1483628836377812732
1.1483187289521101793
1.1482885722329803091
1.1482027187099761445
1.1480128164084359987
1.147743436368825698
1.1474920693945611649
1.1473489571190371716
1.1473069927507733023
1.147262990755358647
1.1471238772976277698
1.1468992102115562748
1.1467101073535255207
1.1466715766019019984
1.1468034199771586223
1.1470198615402149578
1.1505048599469425152
1.1506081973879151992
1.1506765280696678033
1.1506931398171726944
1.1506529639923726016
1.1505574551442590003
1.1504218296451118597
1.1502665598038877004
1.1501150861625786259
1.1499905860488519593
1.1499086602440611316
1.1502878093176671648
1.1503977657797510581
1.1505316340114521978
1.1506240530020701573
1.1506109408532749772
1.1504811469953235559
1.1502917462796649062
1.1501339313076188731
1.1500763789437162821
1.1501234819980179491
1.1502194353354386891
1.1502868484994426268
1.1502770516949878399
1.1501840032856005536
1.1500508775935955885
1.1499247435670056916
1.1498548002503896637
1.149872282381828148
1.149956123196257618
1.1500713665296224963
1.1501788800106773625
1.1502445558279099647
1.1502458457005602099
1.1501808576357281932
1.1500708844463443103
1.1499542897972852007
1.149870458280351837
1.1498427427007051893
1.1498663635277863726
1.1499065090570943504
1.1499144877517237795
1.1498613141927940262
1.1497620170028504116
1.1496708902590000445
1.1496447490991594798
1.1497017190427889499
1.1497161970386122753
1.1497839227818573704
1.1498567090261690993
1.1499275862346425292
1.1499931154290090607
1.1500545064778153748
1.1501163672247347591
1.1501842173532119684
1.1502611388337677933
1.1503453893736172997
1.1504292326844225425
1.1504991450254282714
1.1505392529378977162
1.1505332412491502403
1.1504749422642925882
1.1503642627101857698
1.1502161887823152409
1.150049807192231599
1.1498867499988634222
1.1497519903135939856
1.1496602908147879329
1.1504091680584425106
1.1505226907145365001
1.1506391409497267464
1.1506930317157759713
1.150631736856499554
1.1504602289323528908
1.1502473676000601888
1.1500831425993693902
1.1500263865625239834
1.1500707428557210843
1.1501536085591397285
1.1502039396652123937
1.150181197068042227
1.1500975435068188091
1.1499955461698407877
1.1499334268134027148
1.1499513688222742225
1.1500498503626175317
1.1502051966601349875
1.1503722514223595486
1.1504956687339924493
1.1505315017449195825
1.1504615671795535015
1.1502980611342745743
1.1500833644479113715
1.1498795058382820233
1.1497518216990203488
1.1497365851883381005
1.1498207203928971776
1.1499474777360436661
1.1500438472756151498
1.1500615133709302107
1.1500078349082345497
1.1499393530341708303
1.1499209698766763577
1.1499763746981586099
1.1495768326861317554
1.1496765547174812028
1.1497841547949765317
1.1498880884168551919
1.1499793964638465038
1.150054311277287411
1.1501145232112777173
1.1501655367327197066
1.1502131991594972682
1.1502598621017221525
1.150302153893942636
1.1503313073439564995
1.1503363908647901148
1.1503051537387865011
1.1502321760814195883
1.1501143551444221735
1.1499636040863030484
1.1497960317368678407
1.1496310079152372019
1.1494942395026555015
1.1493973180699474934
1.1506638020995594296
1.1507381178778226527
1.1507384893614764909
1.1506343434776942214
1.150444874333673706
1.1502373393605944685
1.1500875935570600284
1.1500324925285971833
1.1500556373668020527
1.1501038695449703475
1.1501245762852567722
1.1500966606634179801
1.1500418811855350754
1.1500004528491389877
1.1500125360971305
1.1500999529752877759
1.1502576895928848799
1.150455768624044417
1.1506413645168218629
1.1507548070359612247
1.150750036997100656
1.1506143181681620646
1.1503741554717643591
1.1500867796152036693
1.1498296123864475415
1.149678122050940221
1.1496727016231300667
1.1497968940870473276
1.1499836764150315194
1.1501489818580730162
1.1502362460349244699
1.1502450096588494599
1.1502230238817210406
1.1502267857355108482
1.1495504326693342101
1.1496794294330150432
1.1498047607927202041
1.1499133856148304744
1.1499972013477044452
1.1500547334843012059
1.1500899385682141762
1.1501094802438676101
1.1501191930844663069
1.1501209286581353108
1.1501114777576837422
1.1500842210835366952
1.1500304139052694996
1.1499465457354527409
1.1498286997513118557
1.1496856690430876657
1.1495279673618998828
1.1493697957363235851
1.1492361196887026509
1.1491353387413145715
1.1508160034550605211
1.1508297338174506841
1.1507655026832690481
1.1506254981083778866
1.1504421865124991875
1.1502673248924326632
1.150142388711372643
1.1500828085017551494
1.1500661514177585865
1.1500653959789197689
1.150057407939147236
1.1500475974330424123
1.1500560132293760063
1.1501009383969893474
1.1501922125214807391
1.1503311458774807541
1.150508325825320366
1.1506978561067349176
1.1508566677200300354
1.1509318540466584313
1.1508809419227772342
1.1506962124565782712
1.1504132312352339795
1.1500991514627569856
1.1498328669896560328
1.149681309032413834
1.1496766006021466033
1.1498017930115487228
1.1499994094842069803
1.1501979462922287123
1.150346850685440625
1.1504355612448360358
1.1504855183671538477
1.1505260115214510641
1.1493880018738611426
1.1495193976699791261
1.1496487794261600612
1.1497614962649964632
1.1498472369511951729
1.1499020810669058346
1.1499279194783875724
1.1499306200820085255
1.1499170826794817835
1.1498922467432952654
1.1498575440467180275
1.1498105515457264225
1.149745466089040713
1.1496595587627511659
1.1495481968183345334
1.1494184701974001772
1.1492768465423346402
1.1491324180524384868
1.1490076100960580074
1.1489060271429132332
1.1509016237846101394
1.1507801395443131298
1.1506319602652281819
1.1504891786198545578
1.1503676517252001688
1.1502691720722650892
1.1501848737573789894
1.1501114868482933407
1.1500470118850703027
1.1500135750196316398
1.1500387435794707791
1.1501299108837488294
1.150271226970859928
1.1504357772522217918
1.1506029878319579129
1.1507646042762762484
1.1509112138796180336
1.1510171970405378428
1.1510423724653675581
1.1509548587853828394
1.1507530961413687809
1.1504766231818617239
1.1501923287333379875
1.1499646233180429444
1.1498358710056379994
1.1498189520295951649
1.1499011661593718792
1.1500536166505404001
1.1502411191804775559
1.1504319034305061642
1.1506018630272936143
1.150733525526183465
1.1492984389695248826
1.1494122073556258812
1.1495141862515834141
1.1495933834030371834
1.1496443935025462135
1.1496671953581267811
1.1496661251305060336
1.1496473077001507779
1.1496160005538589299
1.1495754363911401263
1.1495256130920030735
1.1494632911091360317
1.1493867028914617201