/*--------------------------------*- C++ -*----------------------------------*\
  =========                 |
  \\      /  F ield         | OpenFOAM: The Open Source CFD Toolbox
   \\    /   O peration     | Website:  https://openfoam.org
    \\  /    A nd           | Version:  12
     \\/     M anipulation  |
\*---------------------------------------------------------------------------*/
FoamFile
{
    format      ascii;
    class       volScalarField;
    location    "0.006";
    object      rho_0;
}
// * * * * * * * * * * * * * * * * * * * * * * * * * * * * * * * * * * * * * //

dimensions      [1 -3 0 0 0 0 0];

internalField   nonuniform List<scalar> 
106891
(
1.1503047273140882822
1.1502281990734479766
1.1501574873887030481
1.1501056065049559685
1.1500845937822512521
1.150095157776273691
1.150137320209433156
1.1502024713982172965
1.1502794432745364617
1.1503542057325013559
1.1504108383669475746
1.1505851189255478229
1.1505228295764353685
1.1505194950945520915
1.150617476554839369
1.1508063964836166004
1.1510162206754077641
1.1511613438703978129
1.1511927587376880044
1.151121519978867358
1.1510048668422727669
1.1508983587242014313
1.1508208485244584285
1.1507519279200772999
1.150658404667185275
1.1505234129424564138
1.1503639700146055524
1.1502167377126497616
1.1501147413439649636
1.1500762285803778351
1.1500994220786171507
1.1501691514107841297
1.1502613018254803645
1.1503475441165720294
1.1504020013324924854
1.1504092914062205022
1.1503713762826703881
1.1503119915020243447
1.150265616400080626
1.1502549979280640713
1.1502713241576758563
1.1502722690406179673
1.1502081780314281634
1.1500596359599535301
1.1498606442928425153
1.1496842037319825458
1.1496005744588106978
1.149635928395075446
1.1497562835548476023
1.150121403298449474
1.1501724142496139169
1.1502241073457573073
1.1502714315027657843
1.1503075710028802803
1.150325419676826888
1.1503196337122731929
1.1502877043725432404
1.1502315563606793081
1.1501586378783292819
1.1500797539719700424
1.1500074452749953213
1.149951903385996177
1.1499246749396048184
1.1499276480274900347
1.1499630041796677915
1.1500233614519144165
1.1500984568540300046
1.1501760649707772899
1.1502384839069450528
1.1505286083635357652
1.1505695271433102889
1.1506893936032540626
1.1508695570192013502
1.1510505715481063049
1.1511651126979747239
1.1511799276308416484
1.1511169952054687293
1.1510260193315895449
1.1509503017402222813
1.1508997082814325097
1.1508503707694279772
1.1507728355290389732
1.1506541146056237235
1.1505118213768061874
1.1503838497352372183
1.1503018514849661091
1.1502770540355302664
1.1502999792128039136
1.1503494462179801872
1.150403906019851874
1.1504460292847256131
1.1504675846159602148
1.1504699756995317994
1.1504641408916189693
1.1504696798139839586
1.1505048616400108674
1.150571246909653178
1.1506420235755874248
1.1506692196393941696
1.1506107807320269387
1.1504577223343430692
1.1502471171304680109
1.1500483254448867765
1.1499271594240414451
1.1499098189556893335
1.1500903984729882179
1.1501418000305019262
1.150179715555712967
1.1502014955229895588
1.1502050997262500687
1.1501894929140861201
1.1501550202548267432
1.1501033457701024254
1.1500371894475822643
1.1499610489780607292
1.1498815059797544702
1.149807370135784268
1.1497463181250182629
1.1497086653677075496
1.1496972220118253372
1.1497175339830596474
1.1497656687355226612
1.1498345094893362983
1.1499156077478118743
1.1499894476657812614
1.1505335383133565852
1.15060708557174185
1.1507334941539573148
1.1508903446349489919
1.1510288184688000079
1.151109193462978908
1.1511240402026621243
1.1510966802161088918
1.1510604599535394499
1.1510369421849278027
1.1510209657696768293
1.1509853348945373597
1.1509069584468234471
1.1507875417005710705
1.1506550522367420264
1.150548858871816682
1.1504933601143438882
1.1504863654228807412
1.1505051411689923846
1.1505206963506799944
1.1505160003748855502
1.1504935244699372454
1.1504695761634948781
1.1504656661031376075
1.1505017128144616745
1.1505871332064363521
1.1507176836463175462
1.150869105795763403
1.150998599373356468
1.1510575723467399989
1.1510117102191381733
1.1508607511182258332
1.150644690060022679
1.1504270409250731966
1.150266567336176049
1.1501922712029439833
1.1500641219368399337
1.1500832675806531569
1.1500758955148988605
1.1500454697873783161
1.1499971924596037454
1.1499365834885422188
1.1498682684848586799
1.1497950161841381522
1.1497182841913575757
1.1496396223346101451
1.1495626227389994511
1.1494920154052266081
1.1494376391003724436
1.1494044562622569572
1.1494026125235237146
1.1494328357313579048
1.1494917104493529436
1.1495747909892044536
1.1496613531506041372
1.150601905043269424
1.1507297388094432922
1.150855893640076788
1.1509535444737921672
1.1510134820016610924
1.1510472900333570401
1.1510750446605526598
1.1511114976720158154
1.1511512157403565038
1.1511719403148255036
1.151146821488131966
1.151067078360579421
1.150950666379412457
1.15083547532147068
1.1507578771175872578
1.1507344150231371138
1.1507498938545641654
1.1507651337389788182
1.1507464294842346675
1.1506880176819076489
1.1506110224449155321
1.1505513185350391137
1.1505464099557103363
1.1506193709962375671
1.1507692560345899047
1.1509731790036261678
1.1511873735706432686
1.1513574052057442554
1.1514339091466785359
1.151389939431204823
1.151234228617765698
1.1510105215427923753
1.1507783075322015609
1.1505887190346699711
1.1498868051593522654
1.1499189573491164218
1.1499163997716670416
1.1498824924500283817
1.1498250846481772314
1.1497539505417606609
1.1496775818392666046
1.1496013493249450654
1.1495265567640780002
1.1494513210097792033
1.1493729496188553885
1.1492908398006775883
1.1492074047018978611
1.1491323569776956681
1.1490733126303667166
1.1490452624994567099
1.1490540302297116426
1.1491004235986113091
1.1491839344909535736
1.1492820586634544533
1.1506056701101066153
1.1507249096272558209
1.1508089597184243402
1.1508583748385912138
1.150895525333043512
1.1509491719022175715
1.1510359490844377373
1.1511488284395596793
1.1512581472082277223
1.1513252661753166084
1.1513238833108647707
1.1512577862539092877
1.1511536453077759745
1.1510495121994055445
1.1509817184609800744
1.1509595615801646584
1.1509596624187374836
1.1509456860553715085
1.1508933029514101243
1.1508040874636260575
1.1507074186640962044
1.1506457263180223105
1.1506568591397321466
1.1507604548091270313
1.1509509027948283677
1.1511950667513008995
1.1514403397598353962
1.1516281076793781768
1.1517110099901439746
1.1516694699100831212
1.1515196503083615642
1.1513057997531577215
1.1510807247256660268
1.1496976807750978189
1.1496742186413053677
1.1496239256560965014
1.1495560486010514278
1.1494811412559868824
1.1494070144670269773
1.1493367742224636086
1.1492685415145380556
1.1491970539724540856
1.149116934595515227
1.1490259998535743424
1.1489269179578365243
1.1488307413537213186
1.1487478419527741291
1.148696260560180038
1.1486847617764708307
1.1487171705839580582
1.1487968941254851352
1.1489005545859598545
1.1506816737581964105
1.1507232728296017399
1.1507379157798396374
1.150767788278566961
1.150849872456913392
1.1509931204560248652
1.1511766748705469787
1.1513562505212997511
1.1514828033006663244
1.1515286314799062506
1.1514927081647283735
1.1514012787126652881
1.1512975714742725852
1.1512117905251118
1.1511513477632617786
1.1511052971930100242
1.1510546746343688351
1.1509866059714943809
1.1509073570117385188
1.1508399400109310395
1.1508116469177680496
1.1508460882262803171
1.1509552806870602115
1.1511321557329006193
1.1513502078826909347
1.1515673151395162677
1.1517334144986133282
1.1518075064280210995
1.1517750999773830323
1.151653442520579107
1.1514816121642768021
1.1513037878294476446
1.1493955535999500484
1.149360578507248043
1.1493118612989416949
1.149257110400309756
1.1492032865420080956
1.1491535033948445665
1.1491060201195546497
1.1490549015203499472
1.148992493047355623
1.1489128568755357929
1.1488145149689201752
1.1487020742103790649
1.1485886510709100161
1.1484875359441957254
1.1484189727135252213
1.1483934731481217906
1.1484158642074739909
1.1484911529184393952
1.1485947309303823349
1.1507209829287214919
1.1506935253381367357
1.1507060552584762458
1.1507914264859839815
1.1509544960188118345
1.1511692391095129651
1.1513922491745529619
1.1515712179140487059
1.1516683543598800199
1.151668453639030032
1.1515913955935330737
1.1514754646421363482
1.1513544377809161734
1.1512486504938463927
1.1511652410496138188
1.1511032248313533
1.1510601425329827219
1.1510355905906672902
1.1510317628519928235
1.1510535897681664075
1.1511035188102416438
1.1511830983306370335
1.1512950555793064478
1.1514335768291303896
1.1515768584690222465
1.1516925178242334304
1.1517517916232014041
1.1517438757488094314
1.1516824237666141162
1.1515972466796737805
1.1489897581124344228
1.1489628261304964951
1.1489427251751731518
1.1489300869410707939
1.1489211138459760608
1.1489085336404116777
1.1488830753117371675
1.1488364086813291909
1.1487645281815550558
1.1486689927905426867
1.1485572189152200018
1.1484436046879373805
1.1483424347696866707
1.1482731337147129569
1.1482456295244953814
1.1482641053899715899
1.1483339178585720841
1.1484301255032045574
1.1507673814322099126
1.1507568285830294119
1.1508179024765192722
1.1509591018843317034
1.1511644049073992413
1.1513977310490135508
1.1516093355403882459
1.1517436656092094882
1.151773429677573013
1.1517101416960164872
1.1515927085185695411
1.1514651192180200834
1.1513579294136018216
1.1512855933543466591
1.1512480003542933105
1.1512391235664887201
1.1512538898204134341
1.1512851921596631843
1.1513233682402250757
1.1513608266731307772
1.1513957099705336429
1.1514324377472235916
1.1514767098646441212
1.1515277447363148067
1.1515766459747951433
1.151614618020216696
1.1516398949190176371
1.1516597993544104295
1.1486108523539317883
1.1486176858206937901
1.1486418827999327341
1.1486773657310458407
1.148713650906939554
1.1487389558953557955
1.1487425756563685031
1.1487172491135395624
1.1486617782884451788
1.1485812981248681997
1.1484863452622455782
1.1483920298948822047
1.1483121710873231969
1.1482626292583351102
1.1482499469606661791
1.1482748184410207504
1.1483404379604607026
1.1484217491427080038
1.1509224258209926894
1.1509378362920361649
1.1510187298607554851
1.1511698256720832578
1.1513720324870038159
1.1515737992614496488
1.1517181084388534718
1.1517640211241293446
1.1517216090871345013
1.1516345531428586746
1.1515528460036319469
1.1515077707451737421
1.1514992603561626794
1.1515096552030903432
1.1515209420293359699
1.1515271512316196389
1.1515360418767961459
1.1515528784029274156
1.1515711187991513054
1.1515789590028913114
1.1515702340962588046
1.1515461587136666122
1.1515178271563706325
1.1515005457794131871
1.1515072421075716047
1.1515489606468285455
1.1516296254224893669
1.148337242212425835
1.1483974870745221608
1.1484697992190631144
1.1485408751532670824
1.1485976310492689301
1.1486293326661141112
1.148630291800723402
1.148601741107662999
1.1485509985074786599
1.1484899658957050672
1.1484327792318085315
1.1483910229787579471
1.1483745931826019326
1.1483849729901418613
1.1484178530327666667
1.1484728251224827211
1.148526317592343915
1.1511953657068552115
1.1511501526657947903
1.1511317057615286785
1.1511601242508906484
1.151256108562197733
1.1514105943172145974
1.1515817667437888705
1.1517093040254364755
1.1517595656638013324
1.1517395628164943666
1.1516978436241798178
1.1516852310027698714
1.1517187113241833529
1.1517758709528245209
1.1518182637567742077
1.1518246970548646768
1.1518035994238926545
1.1517785829624715976
1.1517683725753034008
1.1517710116853019375
1.1517644099024062498
1.1517237053342510578
1.1516437405047807996
1.1515454927898416404
1.1514644733118919451
1.1514322787530528736
1.1514646301227253744
1.1482326364933870266
1.1483175034053183516
1.1484040292332102773
1.1484813594393863401
1.1485408939442136589
1.1485782012734939705
1.1485941482324875107
1.1485942560221926723
1.1485873003842430595
1.1485819741646234871
1.1485841424674567701
1.1485963375931902419
1.1486164741678166479
1.1486379748256920763
1.1486594109004300002
1.1486634720515456198
1.151456769649958245
1.1514056583760663433
1.1513555389077914093
1.1513368353370139197
1.1513808038144506263
1.1514840966976973569
1.1516084495849259195
1.1517019065388252042
1.1517379055198972981
1.1517295955062074597
1.1517179115208262541
1.1517458057043237218
1.1518265855791620655
1.151934080308620878
1.1520253027328646311
1.15207620432827329
1.1520924987622207514
1.1520932624001229971
1.15208976768855198
1.1520712075941732522
1.1520158055301281674
1.1519103094534601794
1.1517682513155884649
1.1516270114939184399
1.1515262962562464732
1.151486422143063848
1.1515029161472722929
1.151560327009693907
1.1482308909678922149
1.1483124432307008078
1.1483966764227975244
1.148477507942554432
1.1485501790467345096
1.1486120820868788162
1.1486626061769649176
1.148703112068071075
1.1487346717853892386
1.1487583956370337468
1.1487731942499332938
1.1487777475319662646
1.1487673306361034786
1.148743296312845219
1.1486979948171645027
1.151570283528032812
1.1515011174234319746
1.1514645519771926629
1.1514927362572833225
1.1515834752717195588
1.1516972077168303734
1.151786324044488774
1.1518238140961243321
1.1518206709901364082
1.1518146996567311113
1.1518422225809337167
1.1519149136345128159
1.1520167039502240414
1.1521214587855703737
1.1522129981231097329
1.1522855318510210054
1.1523347625115656356
1.152344091372740964
1.1522944891739481665
1.1521746672045878324
1.1519989612405423518
1.1518096226614797928
1.1516541718328237032
1.1515633678179133526
1.1515375821444460147
1.151550797145485916
1.1515764612394332467
1.1482606500694123586
1.1483447380428875029
1.1484386992870236899
1.1485361077613862602
1.1486298550187235001
1.1487133328729193238
1.1487817149204764267
1.1488305305486847807
1.1488579395844091824
1.1488613637421178915
1.1488419040424087125
1.1487980466798011214
1.1487346888024432268
1.148652848179646524
1.1516063549746575756
1.1515454469069466015
1.15155535112290619
1.1516343802025790222
1.1517430541208757422
1.1518339279268063891
1.1518791026624171092
1.1518835583822268909
1.1518773168125227002
1.151891551137463221
1.1519392796584790872
1.1520186853861558163
1.1521272991363573635
1.1522588379896998578
1.1523952443685552272
1.1525002486449436034
1.1525321428478563224
1.1524614038972262886
1.152292383587690594
1.1520705148207732726
1.1518608836137862461
1.1517182792666054159
1.1516597242055435224
1.1516584349083140992
1.1516669571949209594
1.1516548303030482714
1.1483296538257052877
1.1484280723764224152
1.1485379259782086958
1.1486484682718867134
1.1487482034063820624
1.1488273549729774992
1.1488771883753539083
1.1488942014730740837
1.1488754614261857956
1.1488257335248166502
1.1487482657609404679
1.1486521685363875189
1.1485454464057376356
1.1515933933391588884
1.1515835418938213941
1.1516558200587374561
1.1517719078893240425
1.1518801411209940166
1.1519482340560549538
1.1519763646574976423
1.1519869711115655608
1.1519995848317119425
1.152026881164767147
1.1520806816437212383
1.1521732735947414206
1.1523075609797122087
1.1524616016127353646
1.1525871891286214588
1.1526255779310421445
1.1525402812314682333
1.1523471177315625091
1.1521111953526435023
1.151914395795118784
1.151811340309268239
1.1517996138794595051
1.1518269910815925883
1.1518306395500259587
1.151781080394256529
1.148452462474775615
1.1485588437455898081
1.1486664608066639026
1.1487614248789563831
1.1488312050344327009
1.1488654613089754886
1.1488613791221791161
1.1488171081491764802
1.1487403761673460334
1.1486376458578013704
1.1485208613333943717
1.1484031818296482896
1.1515809789086222104
1.1516417488622154863
1.1517589708805764381
1.1518803318126833446
1.1519715187274193191
1.1520263518592495089
1.1520606143999723159
1.1520898407245507844
1.1521219470860104561
1.1521681922779776208
1.1522445478741769609
1.152358926365857128
1.1524955007569990251
1.1526089082945800701
1.1526406492334251297
1.1525556722302447987
1.152373215409525864
1.1521633634132886215
1.1520096704704263502
1.1519580675388898516
1.1519906468815648282
1.1520396072761722728
1.1520349062742878399
1.151952216962156772
1.1516385795919947821
1.1517594252911567132
1.1518932994024997374
1.1520032113221307934
1.152081648757030008
1.1521399426342715522
1.1521897269038865463
1.1522338522579469444
1.1522744636801076634
1.1523209361111830251
1.1523849357080577782
1.1524642946403584887
1.1525318980314136486
1.152544714137260895
1.1524732141271349928
1.1523315375681417727
1.1521797517006977518
1.1520876078157697986
1.1520890754016512858
1.1521575101293661803
1.1522222722079662471
1.1522151987004434215
1.1521180679500362398
1.1518755848238453332
1.1520043367561454417
1.1521083688298332515
1.1521962137319565755
1.1522744506436126688
1.1523398978257550773
1.1523840672067466873
1.152404981392134431
1.1524166036061460616
1.1524345356378651317
1.1524551214374965102
1.1524543792864356817
1.1524111293201853012
1.1523303511087310547
1.152249166464764718
1.1522162962076736292
1.152252642187728382
1.1523325794042651449
1.1523945909989201652
1.1523826845827829235
1.1522849254355529425
1.1523728347888400059
1.1524489627330192221
1.1524825512684460094
1.1524700900138920012
1.1524315817966717113
1.1523945618645852207
1.1523751458475255394
1.1523692049863807352
1.1523607355723590739
1.1523427860426225244
1.1523269178259956114
1.1523372369442745899
1.1523860310570910315
1.1524547908324460632
1.152500186811545424
1.1524849760644833019
1.1524025902706502844
1.1524013659445784263
1.1523344303576106284
1.1523035383699964385
1.1523137631305904183
1.152348041707723425
1.152386202676505933
1.1524205970406884436
1.1524545600219411323
1.1524939633512183423
1.1525315406564549114
1.1525487345731144639
1.1525286645834844634
1.1524687414492913451
1.1522757085943871047
1.1522561581412444909
1.1522950010213721672
1.152371149100138048
1.1524532577181836324
1.1525185807452118514
1.1525583336740266027
1.1525744735773346683
1.1525725137950979526
1.1525577826396200543
1.152531468953492011
1.1524949484455877524
1.1423720107137296242
1.1428163856034767587
1.1436185599648041045
1.1445620346793110578
1.1454615901917148957
1.1461792447850593923
1.1466343760714061695
1.1467987988990842041
1.1467093941060897411
1.1464651027571171049
1.1461936098299345677
1.1459979095489549739
1.145911007940389359
1.1458891495678802386
1.145853404129255626
1.1457521520851663421
1.1455723065213274658
1.1453300265937240709
1.1450411854908908449
1.144719636308018762
1.1429844969347133787
1.1425287131750405667
1.1426097146559186513
1.1431131184053606731
1.1438748822225732749
1.1447368411114569042
1.1455697656441559129
1.1462570415551855962
1.1467077516528325631
1.146882361273048323
1.146811720294535597
1.1465920603469414996
1.1463412327202318064
1.1461409191981253297
1.1460120541333902455
1.1459227262782074597
1.1458290027708093461
1.145699761588389709
1.1455156225085081356
1.1452711319721151639
1.1449711250122540651
1.1446351758543720223
1.1459897586339036213
1.1447722122586267979
1.1436827051177147485
1.1429633699952790327
1.1426992379888241125
1.1428522413586634787
1.1433319936494870106
1.1440402877427942041
1.1448728378517452065
1.1457046075891161863
1.1463963326093475903
1.146836231687994978
1.1469864190165588447
1.1468925920495629533
1.1466641043716518933
1.1464119160900205774
1.146205673293716476
1.1460576099153105822
1.1459367088156477976
1.1458028656951468882
1.1456215762513723977
1.1453769158335647127
1.1450791774104969178
1.1447530535868690738
1.1444283913382014006
1.1441257720334181425
1.1463323200129165169
1.1453315316779171251
1.1442213803164780206
1.1432996141570110904
1.1427490605723313877
1.1426058862625925183
1.1427960878966518798
1.1432295768641838052
1.1438361387613005249
1.1445534780509543094
1.1452950626146238822
1.1459468868295923372
1.146402352412679404
1.1466031953450084302
1.1465723617135299417
1.1463960323987354428
1.1461810639641911713
1.1460001303507985071
1.1458768932706882016
1.1457788422686072671
1.1456545712238141999
1.1454659497978116889
1.1452072330657734334
1.1449110669273554475
1.1446251769270465726
1.1443741836854439686
1.1441620213813619156
1.1440030399804941297
1.144501650875709764
1.1435122194212281599
1.1426667264576475525
1.1421967349896451349
1.1422443641164827799
1.1427629131913112914
1.1435212401122036852
1.1442421168107821394
1.1447474537346344903
1.1450189600654028244
1.1451488323219789489
1.1452458618878536001
1.1453744716006739601
1.1455306515718717275
1.1456765066000254016
1.1457741398626719587
1.1458231119976842738
1.1458451592166256638
1.1458580880155779802
1.1458617280983114384
1.1458265160767044932
1.1457252281532699367
1.1455615519796993329
1.1453829776388009254
1.145273230459746161
1.1453015480652855018
1.145470638570337707
1.1457291113711303154
1.1460193664706068706
1.1463338461241763255
1.1450809090680373892
1.1447527266910977328
1.1443709319182693296
1.1440514778615562541
1.143931457557534781
1.144110634115897307
1.1445392661887503483
1.1450366988273901203
1.145408254569747486
1.1455740552651971775
1.1456131766656871829
1.1456805693221139286
1.1458981098070351035
1.1462933016490588489
1.1467992126591677327
1.1473043734336783039
1.1477191323511277687
1.1480192661959114364
1.1482395810920811297
1.148433455742271958
1.148624554516693097
1.1487960925144939939
1.1489040609524268088
1.1489264964547634129
1.1488925789787589604
1.1488759411768665331
1.1489346341858186484
1.1490574692093347142
1.1491672169607960452
1.1491975203000557304
1.1491590624592598058
1.1491311859494068859
1.1472923870019222647
1.1470276636946667992
1.1466615860223647871
1.1463097145790426268
1.1461513705197008406
1.1463052769358830218
1.1467411852350537504
1.147267716804723392
1.1476702427959395436
1.1478512420517976711
1.1478843819880535371
1.1479308933257743597
1.1481131565981803622
1.148458806499738305
1.1488909687884694133
1.149287140741572788
1.1495519722842182375
1.1496670316327766148
1.1496841912018345155
1.1496799387210845378
1.1496917035803659868
1.1496992656215128115
1.1496477277255165994
1.1494982199201433382
1.1492812227531339353
1.1490815410270167618
1.1489707027597955147
1.1489401374628174235
1.1489037966500752486
1.148780898590626931
1.1485884392598457726
1.1484261732511940046
1.1483939947464565368
1.1450577115810225415
1.1448483231151500572
1.1443954774135955965
1.1440694473075836424
1.1440265843077788155
1.1442965051469879967
1.1477986071151478065
1.1474774043770397114
1.1470314316204086591
1.1465881136808155905
1.1463432843469392175
1.1464241508999943875
1.1468039508649146008
1.1472774236898595213
1.1476130378523099473
1.1477101809601601978
1.1476491004278972508
1.1476038091991775936
1.1477086245023706557
1.1479946195722967595
1.1483790337345534116
1.1487278713896307281
1.1489371390905778192
1.1489848252954797392
1.1489310437536737197
1.1488617478727409793
1.1488222307113373777
1.1487909803180333945
1.148703544383789632
1.1485142652530415663
1.1482521923858868274
1.1480104147217313759
1.1478708384846401103
1.1478247926626394815
1.1477753150670382265
1.1476331150726672981
1.1474152961051109489
1.1472351222104133495
1.1471993611608732877
1.1473263491111560519
1.1468161115731538846
1.1471925333006605108
1.1469685771114448425
1.1464915515783620226
1.1461438593534791774
1.1460792593890707369
1.1463291349831896682
1.1475938247282011506
1.1472470308396789385
1.146765320117466791
1.1462847661051540626
1.1460073673362876079
1.146069505267907962
1.1464376638567448374
1.1469026063655318737
1.147221949916150896
1.147296836626631622
1.1472099771464554507
1.1471436302245014982
1.1472393919516816752
1.1475238421364557517
1.1479125425160843221
1.1482640485493269544
1.1484693007429607192
1.1485078140008799785
1.1484419161579415558
1.1483620581226696711
1.1483184453894457189
1.1482870203561588163
1.1481975922407701152
1.1480036422384916062
1.147732703941264587
1.147483796168536907
1.1473449492836778063
1.147305017683689865
1.1472590324047395871
1.1471162767563072293
1.1468905219519935912
1.146705213411362001
1.1466729927952732382
1.1468098838234692671
1.1470270346576023623
1.150517930247925813
1.1506196356204954068
1.1506852701146470519
1.1506984761325103062
1.1506547557441866303
1.1505562288104131952
1.1504186957553095283
1.1502629396536945272
1.1501123895586282675
1.1499899286201136217
1.1499107056256152593
1.1502894171471027551
1.1504014651948915038
1.1505354324754704098
1.1506251175792712171
1.150607566921323377
1.150474168616462789
1.1502841053680976646
1.1501289005423114276
1.1500754981360050699
1.1501257712007717515
1.1502222552596241822
1.1502877014311425619
1.1502749484082874787
1.1501797714900734437
1.150046564464361154
1.1499221553912015725
1.1498559114165760597
1.1498770598089524952
1.1499632015461873635
1.1500790385695989215
1.150185418443131713
1.1502485750660988995
1.150246786699325785
1.1501791928817997057
1.1500680683328163845
1.1499521336139737482
1.149870382827133275
1.1498451312152790926
1.1498703201462350254
1.1499101159526072813
1.1499159891158745594
1.1498604079188088356
1.149760340467266051
1.1496710381139292334
1.1496485374930762724
1.1497087228362889988
1.1497258543298012334
1.149794021839898317
1.1498668423809967898
1.14993748823791897
1.1500027433260842091
1.1500640521335538935
1.1501261627090550999
1.1501945600589875696
1.1502720699148487604
1.1503565399110058376
1.1504398275841822841
1.1505081842403632741
1.150545797614335175
1.1505366763245987727
1.150475136615633609
1.1503616497427693321
1.1502117666005455821
1.1500449299665727043
1.1498828441942561263
1.1497502213552401873
1.1496613759945313316
1.1504114177310000855
1.1505261605810794823
1.150641693721135006
1.1506920958286579459
1.1506262314931263724
1.1504516154813622109
1.1502388615153700258
1.1500778099228397
1.1500253329286049819
1.1500726169502784035
1.1501556828237597951
1.1502039485361101878
1.1501786282922445981
1.1500936278937732293
1.1499923954225768075
1.1499332902950847313
1.1499550415585628738
1.1500568000952651193
1.150213880351330431
1.1503803304393087625
1.1505007806828271288
1.1505322042648464809
1.1504577189857969621
1.1502909359261390687
1.1500753370814267296
1.1498734542884583298
1.149750037206520803
1.1497395307787798835
1.1498267804052935137
1.1499537417092138281
1.1500476352024027182
1.1500619802991165486
1.1500065215964068166
1.149939101020143406
1.149923915601476665
1.1499822495361444741
1.1495885075563301303
1.1496889742998812611
1.1497966251843760865
1.1499000007495361331
1.1499903737113279512
1.1500642787796182542
1.1501236743503036042
1.1501741848226862963
1.1502215799740667102
1.1502679508470745606
1.1503095737419413158
1.1503373824464742103
1.1503403617030913964
1.1503064825209903255
1.1502307634477837439
1.1501105987335618064
1.1499583477399524245
1.1497904091510668945
1.1496262913752117729
1.1494915580382401021
1.1493974340535815237
1.1506658602794428425
1.150738312614301595
1.1507352509232213755
1.1506273252291698839
1.1504358203320284026
1.1502291793981882506
1.1500826018193717193
1.1500310404091864669
1.150056326488727132
1.1501045121297521767
1.1501235933212257123
1.150094125488065
1.1500391386770172364
1.1499992768644333729
1.1500143403543445775
1.1501051467364891145
1.1502655438968005797
1.1504644306782834118
1.1506482352678333303
1.1507574512891207696
1.1507470934355519265
1.150606100037295354
1.150362560072888396
1.1500747976028575792
1.1498206705908504688
1.1496748061703589983
1.1496755323081591094
1.1498039837440947597
1.1499916440350899105
1.150154732094779364
1.1502386045170021056
1.1502451708194199043
1.1502234598335083771
1.1502293516992778688
1.1495637383318666469
1.1496929745994644012
1.1498176751237922932
1.1499250065640835849
1.1500072017523406132
1.1500631352296186716
1.1500970032140682697
1.1501155246780516705
1.1501244138370989578
1.1501252942212181196
1.1501147123481127998
1.1500858842994212683
1.1500300979820432534
1.1499441003990718002
1.1498243866152437764
1.1496801611557820877
1.1495221901031764666
1.1493648063632255774
1.149232880073121521
1.1491345695061110366
1.1508160772675315453
1.1508272837866608818
1.1507602080443353199
1.1506179650130075043
1.150434059510246243
1.1502604177376887229
1.1501377753389641079
1.1500803188018056122
1.1500645987487014832
1.1500638677635917073
1.1500555349477608047
1.1500459783059537866
1.1500554686374615532
1.1501021429227558102
1.1501955254536619933
1.150336495139063997
1.1505150129208241427
1.1507043438949029479
1.1508607745029755254
1.1509313882944061103
1.1508747159674292959
1.1506848283145236778
1.1503989649754489122
1.1500852296309127532
1.1498225327992606104
1.1496767748388798669
1.1496782357193677804
1.1498079617904852778
1.1500072758035106979
1.1502048189004727696
1.1503514631599849327
1.1504382833238360195
1.1504876178987875068
1.1505284664391441929
1.1494002515428796141
1.1495321133586258178
1.1496610252961370069
1.1497724776049800255
1.1498564505541823966
1.1499093676588929558
1.1499334180759626101
1.1499346425485603707
1.1499199510330344598
1.1498941536070590441
1.1498584913828782117
1.1498103782942812323
1.149743958189106019
1.1496565840518842005
1.1495438528363028929
1.1494131678344088332
1.1492712454581917036
1.1491273670467740953
1.1490039284503577033
1.1489043906365323799
1.150896808412589678
1.1507737001802103016
1.1506252571323429823
1.1504830092417017706
1.1503622539796738433
1.1502642923611250403
1.1501802236341354124
1.1501070219051459098
1.150043062666875171
1.1500112909204809331
1.150038831408392026
1.1501321880915300611
1.1502748484639875315
1.1504398491780376546
1.1506070500224474529
1.1507684064426479953
1.1509140190235223056
1.1510175326817473351
1.1510385930970672419
1.1509461730590362372
1.1507402668032176152
1.1504619821594357365
1.1501787830606817753
1.1499545390217038587
1.1498305094076657351
1.1498183545031770425
1.1499044578502350955
1.1500594081214658981
1.1502479524238486963
1.1504385882157135423
1.1506075778657791631
1.1507377031288450464
1.1493087071924399378
1.1494222958343849328
1.1495233458277687166
1.1496010610819153985
1.1496503149950023648
1.1496713639122166928
1.1496687407465646658
1.1496486439427007209
1.1496162918294294819
1.1495748051390677347
1.1495240585119714805
1.1494607504786735763
1.1493831257958193603
1.1492860825245263534