/*--------------------------------*- C++ -*----------------------------------*\
  =========                 |
  \\      /  F ield         | OpenFOAM: The Open Source CFD Toolbox
   \\    /   O peration     | Website:  https://openfoam.org
    \\  /    A nd           | Version:  12
     \\/     M anipulation  |
\*---------------------------------------------------------------------------*/
FoamFile
{
    format      ascii;
    class       volScalarField;
    location    "1e-05";
    object      nut;
}
// * * * * * * * * * * * * * * * * * * * * * * * * * * * * * * * * * * * * * //

dimensions      [0 2 -1 0 0 0 0];

internalField   nonuniform List<scalar> 
106891
(
1.1640849936665705384e-08
1.1660601867119572121e-08
1.1654345018864028033e-08
1.1640394570527295432e-08
1.1623754149863638225e-08
1.1607611540407032451e-08
1.1591528029727774962e-08
1.1575438950338008714e-08
1.15596726852308743e-08
1.154182534140833286e-08
1.1526098068052153874e-08
1.8623540569312503557e-08
1.8641815290266127117e-08
1.8624644958033324822e-08
1.859898505858171035e-08
1.8573079653340688045e-08
1.8547336787290583706e-08
1.8521632896638396684e-08
1.8495964891373336087e-08
1.8470332311577730391e-08
1.8444735426156872813e-08
1.8419173848468992272e-08
1.8393647937729022353e-08
1.8368157318495412684e-08
1.8342701935677444777e-08
1.8317281781587685833e-08
1.8291897073698913529e-08
1.8266547306741284102e-08
1.8241232860411497342e-08
1.8215953604883642136e-08
1.8190709131373146278e-08
1.816549974478144046e-08
1.8140325401496750372e-08
1.8115186034273848326e-08
1.8090081232840090664e-08
1.8065011411009208453e-08
1.8039976430047362712e-08
1.801497595678988323e-08
1.7990010311289264316e-08
1.7965079083795173928e-08
1.7940182675672566083e-08
1.7915320614320714807e-08
1.7890492839991193166e-08
1.7865699685239052494e-08
1.7840941112185819805e-08
1.7816214107405925977e-08
1.779157025419249637e-08
1.7766244544236112289e-08
1.7747985523474857894e-08
1.2407559412004613658e-08
1.2428371667293495184e-08
1.2421497758082929226e-08
1.24065504120648648e-08
1.2388821835139661832e-08
1.2371618976547501496e-08
1.2354474210245073534e-08
1.2337355335074908738e-08
1.2320259238526231883e-08
1.2303191867014923383e-08
1.2286145810149216724e-08
1.2269121899535600648e-08
1.2252121209482361839e-08
1.2235143722850728289e-08
1.2218190152810184849e-08
1.2201262208500156351e-08
1.2184326731000262736e-08
1.2167730376341139192e-08
1.2148947134117600188e-08
1.2132370192916638602e-08
1.957600738438056532e-08
1.9595260368051119679e-08
1.957722861892092002e-08
1.9550261385363016206e-08
1.9523029577968307452e-08
1.9495969563138801916e-08
1.9468950933892246332e-08
1.9441969945711008144e-08
1.9415026152805928698e-08
1.9388119967051261915e-08
1.9361250906768682665e-08
1.9334418920296437192e-08
1.9307624326823704635e-08
1.9280867055921955286e-08
1.9254146678818009194e-08
1.9227463164250471007e-08
1.9200816837259148482e-08
1.9174207629406370209e-08
1.9147635109786987546e-08
1.9121099245314179655e-08
1.9094600364016159321e-08
1.90681384015808019e-08
1.9041712905303536835e-08
1.9015323946527752284e-08
1.8988971774518512413e-08
1.8962655954763462968e-08
1.8936376813346356653e-08
1.8910133832092432174e-08
1.8883927402227229035e-08
1.8857757487595738146e-08
1.8831623631409561871e-08
1.880552598849596005e-08
1.8779462235626136979e-08
1.8753485647903443936e-08
1.8726790755890341401e-08
1.8707548188584367637e-08
1.3060216210088885602e-08
1.308212861700093948e-08
1.3074895142026692036e-08
1.305916219522806297e-08
1.3040501025976017819e-08
1.3022393143049501906e-08
1.3004346691919424648e-08
1.2986326630278884614e-08
1.2968331794706718007e-08
1.2950362000964189591e-08
1.2932417419832795344e-08
1.2914497211110599365e-08
1.2896602283575907301e-08
1.2878731715168066697e-08
1.2860885909734211994e-08
1.2843067251631046664e-08
1.2825241780578149956e-08
1.2807768606800417546e-08
1.2788024024248190325e-08
1.2770475119404051223e-08
2.0605795192906377249e-08
2.0626070911099963081e-08
2.0607092749954077695e-08
2.0578707496283149525e-08
2.0550042877475449224e-08
2.0521559308745132309e-08
2.0493118946001184887e-08
2.0464718246465522062e-08
2.0436357030750164452e-08
2.0408035207918108136e-08
2.0379752362592938901e-08
2.0351508826123791245e-08
2.0323304532303621938e-08
2.029513949607678547e-08
2.0267013274573299817e-08
2.023892594941737252e-08
2.0210877768755580591e-08
2.0182868290911629805e-08
2.0154897824459732036e-08
2.012696594857205174e-08
2.0099072977974854025e-08
2.0071218488781912222e-08
2.0043402800817402245e-08
2.0015625467112337881e-08
1.9987886921208707809e-08
1.9960186644622788849e-08
1.9932524593221199836e-08
1.9904901023309503088e-08
1.9877315839556009822e-08
1.9849769063907439653e-08
1.9822260241795216839e-08
1.9794789538794555965e-08
1.9767354509209590479e-08
1.9740011196853021475e-08
1.9711912320922741082e-08
1.9691653225582973035e-08
1.3727937166544222271e-08
1.3751073241450603184e-08
1.3743557794856453814e-08
1.3727058539715109963e-08
1.3707439241392287554e-08
1.3688404226738343328e-08
1.3669434629476944503e-08
1.3650493127861189864e-08
1.3631577639632069671e-08
1.3612688900080538569e-08
1.3593825879660070374e-08
1.3574989503494385543e-08
1.35561790750135537e-08
1.3537394193418604272e-08
1.3518638353148376646e-08
1.3499874547427895779e-08
1.3481481534772780074e-08
1.3460702091568471814e-08
1.3442205796774065047e-08
2.1659644418939761784e-08
2.1681005584385029526e-08
2.1661075966122810349e-08
2.163124495840652549e-08
2.1601112308655032678e-08
2.1571171685613329224e-08
2.154127661277997648e-08
2.1511423021658972296e-08
2.1481611116482576412e-08
2.1451840432697448262e-08
2.1422110923484923638e-08
2.139242246235978937e-08
2.1362775396425079568e-08
2.1333169528568336101e-08
2.1303604465917526383e-08
2.1274080674124543081e-08
2.1244597619944108827e-08
2.1215155240209730886e-08
2.1185753912410499653e-08
2.1156393444333119465e-08
2.1127073455282668819e-08
2.1097794304967289393e-08
2.1068555527818584131e-08
2.103935757801431902e-08
2.1010199913866442261e-08
2.0981082468109030103e-08
2.0952005622946016405e-08
2.092296921152597263e-08
2.0893972739660045906e-08
2.086501668967130564e-08
2.0836097982961545379e-08
2.0807276512045793944e-08
2.07776589559199154e-08
2.0756288810227568925e-08
1.4470339625299494988e-08
1.449462529320020786e-08
1.4486612656727786553e-08
1.4469181304316466945e-08
1.4448504968189519092e-08
1.4428441296404088987e-08
1.4408446266397823176e-08
1.4388480335615471048e-08
1.4368542282373010279e-08
1.4348631962304214944e-08
1.4328749573023638496e-08
1.4308894196485821078e-08
1.4289066813016907415e-08
1.4269266419238158861e-08
1.4249493838344504215e-08
1.4229751108991708795e-08
1.4209999724174741607e-08
1.4190642837960171735e-08
1.4168747860430898942e-08
1.414933673682571324e-08
2.2799059464472554951e-08
2.2821553726884603221e-08
2.2800577609456703812e-08
2.2769177779316098015e-08
2.273745941254677272e-08
2.2705943524117160634e-08
2.267447578944897169e-08
2.2643051475241545783e-08
2.2611670921535862543e-08
2.2580334069651828576e-08
2.2549040431301032449e-08
2.2517789969168539476e-08
2.2486583075801766793e-08
2.2455419547583132572e-08
2.2424298972694154718e-08
2.2393221840977057122e-08
2.236218757105690627e-08
2.233119622118223558e-08
2.2300248067409357674e-08
2.2269342596500770358e-08
2.2238480275900214868e-08
2.2207660539340897252e-08
2.2176883319924284376e-08
2.2146148994288486381e-08
2.2115457490219927725e-08
2.2084808283231261282e-08
2.2054201450353003308e-08
2.2023637300687057277e-08
2.1993115353336879689e-08
2.1962632801738258786e-08
2.193225248956075588e-08
2.1901034525308674233e-08
2.1878512124442927585e-08
1.52103497971737067e-08
1.5235909303930547982e-08
1.5227512079361361392e-08
1.5209199388640482276e-08
1.5187464576690194075e-08
1.5166374101486532982e-08
1.5145355839998568547e-08
1.5124369181955037269e-08
1.5103411131175785469e-08
1.5082482643981931649e-08
1.5061582630433697353e-08
1.5040711754941966168e-08
1.5019870252427190111e-08
1.4999057270096114813e-08
1.4978275756301787391e-08
1.4957485647673789107e-08
1.4937105926416514818e-08
1.4914090056918545419e-08
1.4893544119032307035e-08
2.3965088065248564024e-08
2.3988791329080892914e-08
2.3966765752955181566e-08
2.3933767156043813839e-08
2.3900424607620962514e-08
2.3867296605792709259e-08
2.3834218815403106019e-08
2.3801187234568770454e-08
2.3768201548399374452e-08
2.3735261355041331863e-08
2.3702367027842681649e-08
2.3669518095233781774e-08
2.3636714907396091789e-08
2.3603956984207755926e-08
2.357124470241828901e-08
2.3538577450108990987e-08
2.3505955710511496521e-08
2.3473379322216755666e-08
2.3440847741662087124e-08
2.3408361482235582977e-08
2.3375920388412316094e-08
2.3343523914118261678e-08
2.331117255433954236e-08
2.3278866262336271305e-08
2.324660451507095048e-08
2.3214387265745439682e-08
2.3182214935045772537e-08
2.3150087455473054838e-08
2.3118001031061458458e-08
2.3086022469112246715e-08
2.305316248341279389e-08
2.3029451599134371014e-08
1.6010455495039437943e-08
1.6037366227027148e-08
1.6028529176086022811e-08
1.6009253260206862933e-08
1.5986374904550271323e-08
1.5964175571711904966e-08
1.5942051368661916322e-08
1.5919960130113253908e-08
1.5897899697750463074e-08
1.5875870212177902864e-08
1.5853870659125337583e-08
1.583190213633395074e-08
1.5809963510066259223e-08
1.5788055295980261137e-08
1.5766180792330472438e-08
1.5744297445163241612e-08
1.572284444540120546e-08
1.5698621441152234387e-08
1.5676968677774044364e-08
2.5190994394459969678e-08
2.5215820706329370677e-08
2.519262959468592081e-08
2.5157925886060964982e-08
2.5122880942285492225e-08
2.508805804421906849e-08
2.5053288314377987554e-08
2.501856704985378328e-08
2.4983893999132423071e-08
2.4949268742412447015e-08
2.4914691814690449201e-08
2.4880162581909170231e-08
2.4845681084965087953e-08
2.481124775642655314e-08
2.4776861925515727448e-08
2.4742523649720598042e-08
2.4708233252739517335e-08
2.4673990061490790157e-08
2.4639794558819350855e-08
2.4605646689164814406e-08
2.4571545906478507445e-08
2.4537492162928327236e-08
2.4503485898574849351e-08
2.4469526921206991662e-08
2.4435614643029363854e-08
2.4401749727083908615e-08
2.4367928619912120632e-08
2.4334220451766741667e-08
2.4299584594587862281e-08
2.4274590433408450941e-08
1.682903479776623104e-08
1.6857448560982463642e-08
1.6848267855084368111e-08
1.6828053913196749346e-08
1.6804001145625070519e-08
1.678066439118212438e-08
1.6757408917973174321e-08
1.6734187499442680153e-08
1.671099890921951476e-08
1.6687841918150441532e-08
1.6664717581825204104e-08
1.6641624733454911781e-08
1.6618564317476039883e-08
1.6595538676104292682e-08
1.6572503553781372104e-08
1.6549922113140133894e-08
1.652442862670546047e-08
1.6501608967872360164e-08
2.6479119446061363892e-08
2.6505445731446081197e-08
2.6481161446767470846e-08
2.6444717474702014883e-08
2.6407872099070127781e-08
2.6371267908497311504e-08
2.6334719476526479167e-08
2.6298222104921133669e-08
2.6261774987766556182e-08
2.6225378648051093667e-08
2.6189032877814760556e-08
2.6152737231847722411e-08
2.6116492127798433592e-08
2.60802970375316143e-08
2.6044152378609870783e-08
2.6008057474935709929e-08
2.5972012860707142503e-08
2.593601833481432367e-08
2.5900073436377395493e-08
2.586417862329293278e-08
2.582833321457972838e-08
2.5792537749904661279e-08
2.5756792027750347991e-08
2.5721095723695232092e-08
2.5685445664434945557e-08
2.5649913963583013317e-08
2.5613407217526428444e-08
2.5587081689649443328e-08
1.7714303621269215514e-08
1.7744218307331356405e-08
1.7734555979000177591e-08
1.7713278165538997774e-08
1.7687960128026525062e-08
1.766339567691703811e-08
1.7638916707177649567e-08
1.7614473572958946495e-08
1.7590064990133609573e-08
1.7565689672210511912e-08
1.7541348719969981312e-08
1.7517040942179079709e-08
1.7492767250240818044e-08
1.7468529829292035269e-08
1.7444283050339774988e-08
1.7420517205481162684e-08
1.7393656040043574868e-08
1.7369713917883462021e-08
2.7833392209896310533e-08
2.7861129725533990626e-08
2.7835629402237546283e-08
2.7797329523220658666e-08
2.7758597441123983608e-08
2.7720120434359800247e-08
2.768170270139477426e-08
2.7643338118205823435e-08
2.760502660630234193e-08
2.7566768481747040791e-08
2.7528563134946553705e-08
2.7490411119874645759e-08
2.7452311733317893755e-08
2.7414265016707253332e-08
2.7376271448118651582e-08
2.7338330314148296473e-08
2.7300441527405707723e-08
2.7262605565797584509e-08
2.7224822187796727011e-08
2.7187090902483187644e-08
2.7149412193610406454e-08
2.7111785341170986895e-08
2.7074211035402998549e-08
2.703668541928295135e-08
2.6999284295346571778e-08
2.6960856979252814457e-08
2.693314319006587486e-08
1.8620229025039204661e-08
1.8651715235030055767e-08
1.864159429178259306e-08
1.86192408294049673e-08
1.8592626145580981703e-08
1.8566804713909239572e-08
1.8541073133890134513e-08
1.851538035415223029e-08
1.8489722614730657058e-08
1.8464101040409878793e-08
1.8438514360107029144e-08
1.8412963601954186883e-08
1.8387451437263390847e-08
1.8361928274192846219e-08
1.8336912012416618677e-08
1.8308634421415148166e-08
1.8283578335889139726e-08
2.9338623779079855916e-08
2.9367623879001404281e-08
2.9340644313160438838e-08
2.9300235451461480008e-08
2.9259416916824833508e-08
2.9218859780129844615e-08
2.9178364578063364085e-08
2.9137925362099803894e-08
2.9097542563017605159e-08
2.9057215604071048096e-08
2.9016944401362356386e-08
2.8976728912928214186e-08
2.8936569602155465344e-08
2.8896465694796955228e-08
2.8856417229979951394e-08
2.8816424707831864631e-08
2.8776487380343530665e-08
2.8736605155836914167e-08
2.869677853462381441e-08
2.8657007263064738364e-08
2.8617290829385810442e-08
2.857762970634022255e-08
2.8538023460666492882e-08
2.8498468482607293737e-08
2.8459045111313117377e-08
2.8418541004484977085e-08
2.8389310680385719685e-08
1.9572685166569407737e-08
1.9605725760757329773e-08
1.9595032821263589167e-08
1.9571508416660642049e-08
1.9543534734641359641e-08
1.9516393298856279364e-08
1.9489346005470904207e-08
1.9462338276439718496e-08
1.9435368749022605948e-08
1.9408435943229529978e-08
1.9381540458516593054e-08
1.9354686594701831702e-08
1.9327817253274531671e-08
1.9301549827546310647e-08
1.9270932794972567693e-08
1.925274766657020797e-08
2.2242854927421703476e-08
2.2264961839067067588e-08
2.2244563745798915842e-08
2.2213951225680742526e-08
2.2183001086062287458e-08
2.2152253674333705835e-08
2.2121553407669811613e-08
2.2090895502084538678e-08
2.2060280290777874545e-08
2.2029707720278449049e-08
2.1999177289798271583e-08
2.1968689061817837454e-08
2.1938243426786813913e-08
2.1907839785725964806e-08
2.1877478190772371646e-08
2.1847158932079036634e-08
2.1816881408355001958e-08
2.1786646051818588645e-08
2.1756452815794287674e-08
2.1726301190605940256e-08
2.1696191255759139241e-08
2.1666123295743515359e-08
2.1636096795615939842e-08
2.1606112323635292476e-08
2.1576166385751659309e-08
2.1546319923670425941e-08
2.1515654549000610766e-08
2.1493537427394106164e-08
1.4818627835632436768e-08
1.48436593485237988e-08
1.4835587978452905227e-08
1.481778832263506897e-08
1.4796608913086170488e-08
1.4776060337448124457e-08
1.4755583368549140046e-08
1.473513669822663709e-08
1.4714718013819814871e-08
1.4694327712372167878e-08
1.4673969008014635296e-08
1.4653596944069784818e-08
1.4633705192029007245e-08
1.4610193205222072445e-08
1.4599384236890293858e-08
2.1374034365144965853e-08
2.1395324928643974223e-08
2.1375744068708963576e-08
2.1346334210442042202e-08
2.1316591596937867119e-08
2.1287045062213350794e-08
2.1257543983610793645e-08
2.1228083718719347182e-08
2.1198664583860974088e-08
2.1169286025962642792e-08
2.1139948080865033753e-08
2.1110651122767315075e-08
2.1081394575079915512e-08
2.1052178470958447551e-08
2.1023003167920073112e-08
2.0993868202866727022e-08
2.0964773530103132446e-08
2.0935719039992789073e-08
2.0906704967592964594e-08
2.0877731232725690742e-08
2.0848797738128460513e-08
2.0819904102923830038e-08
2.0791050907547350132e-08
2.0762234786349200114e-08
2.0733514460175847331e-08
2.0704005372432680474e-08
2.0682727079267917037e-08
1.4239649860507502122e-08
1.4263808183805609786e-08
1.4256146383936082114e-08
1.4239082945168669775e-08
1.4218726888787267788e-08
1.4198980186697844466e-08
1.417930273306761336e-08
1.4159654622724557068e-08
1.4140033671668855948e-08
1.4120442939069372138e-08
1.4100842406181336482e-08
1.4081658382542679345e-08
1.4059577167860970044e-08
1.4043999709999754789e-08
2.053939192988748178e-08
2.0559771569800681516e-08
2.0540923018748052263e-08
2.0512647246593068712e-08
2.0484069090386193101e-08
2.0455676983245196236e-08
2.0427328044539225961e-08
2.0399018789507748876e-08
2.0370748599145158633e-08
2.0342517411916420747e-08
2.0314325587034199019e-08
2.0286172940418782029e-08
2.0258059093110643424e-08
2.0229984477941137707e-08
2.0201948676762117327e-08
2.0173951630229901442e-08
2.0145993326404147836e-08
2.0118073998419488451e-08
2.0090193188847694832e-08
2.0062351218625795292e-08
2.0034547650899339848e-08
2.0006782927880033573e-08
1.9979053748862401195e-08
1.9951417442109377898e-08
1.992302129009869535e-08
1.9902531833040359017e-08
1.368365435089821737e-08
1.3706824127681658852e-08
1.3699421890773301144e-08
1.368300433601741476e-08
1.3663444847143545182e-08
1.3644470251685868337e-08
1.362556151757506998e-08
1.3606680731635416458e-08
1.3587828722458516742e-08
1.3568967184545043535e-08
1.3550507101233394208e-08
1.3529263769841995388e-08
1.3514228066404073679e-08
1.9736966341117263099e-08
1.9756719374861222875e-08
1.9738677789604528878e-08
1.971153329227340504e-08
1.9684065704196494575e-08
1.965678220250818233e-08
1.9629540842242446567e-08
1.9602337181942886171e-08
1.9575171055553370367e-08
1.9548042807283885615e-08
1.9520952259493487766e-08
1.9493899044606038742e-08
1.9466883598925774452e-08
1.9439905427152607592e-08
1.9412964469804096118e-08
1.9386061079224806661e-08
1.9359195079892293958e-08
1.9332366113654594526e-08
1.9305574534877394869e-08
1.9278819835099317103e-08
1.9252102434537717628e-08
1.922541950952298114e-08
1.9198825921054414563e-08
1.9171501127082402137e-08
1.9151784715619245424e-08
1.3149053287122837295e-08
1.3171411970416113622e-08
1.3164383869995740083e-08
1.3148645662565620801e-08
1.3129847521431313441e-08
1.3111613011929464065e-08
1.309344222684676603e-08
1.3075301266373006774e-08
1.3057151619231925492e-08
1.3039390107833586123e-08
1.3018934388623956671e-08
1.3004472678432268382e-08
1.8966260630984408549e-08
1.8985167951448910109e-08
1.8967800310024170763e-08
1.8941702458621932245e-08
1.8915310014040924886e-08
1.8889092415400770523e-08
1.886291508213459214e-08
1.8836773859971377804e-08
1.8810669060843636428e-08
1.8784600550893229344e-08
1.8758567908331074272e-08
1.8732571463388033622e-08
1.870661108563853004e-08
1.8680686682797533139e-08
1.865479829087302562e-08
1.8628945847974354817e-08
1.8603129036809218939e-08
1.8577348202903347708e-08
1.8551602855571898119e-08
1.8525893400604545636e-08
1.8500217120308850662e-08
1.8474626811413618564e-08
1.8448332844398205717e-08
1.8429360276113472189e-08
1.8225299521605633932e-08
1.8243619731980172938e-08
1.8226999919169933852e-08
1.8201949143771316063e-08
1.8176582473947601342e-08
1.8151388713507175857e-08
1.812623363036451121e-08
1.8101113715386895394e-08
1.8076028446779103453e-08
1.8050978203709713444e-08
1.8025962520445027846e-08
1.8000981360504565154e-08
1.7976034949439140463e-08
1.7951123221053489593e-08
1.7926246090369958556e-08
1.7901403231135540258e-08
1.7876595062062588913e-08
1.7851821115278433739e-08
1.7827081432266245322e-08
1.7802373837528148334e-08
1.7777748570129576386e-08
1.7752446793443027854e-08
1.7734202666763600365e-08
1.7489293155110992118e-08
1.7506848519531268397e-08
1.749088396674218141e-08
1.7466834522986679559e-08
1.7442500874078638636e-08
1.7418326809445333029e-08
1.7394188209158054599e-08
1.7370082829794350124e-08
1.7346010718568312542e-08
1.7321972178024248596e-08
1.7297967046464260178e-08
1.7273995005568376157e-08
1.7250056357429037668e-08
1.7226150713415081098e-08
1.7202278454568354115e-08
1.7178439126321068453e-08
1.7154632768524453376e-08
1.7130857288776799069e-08
1.7107161034736212985e-08
1.7082813750769043905e-08
1.7065257993591044781e-08
1.6736245213928679785e-08
1.6753205967668170749e-08
1.6737995475376078187e-08
1.6715003508794386323e-08
1.6691712599882671925e-08
1.6668579005029105961e-08
1.6645479637925928512e-08
1.6622411962801595731e-08
1.659937641499195326e-08
1.6576372641068490377e-08
1.6553400928596473998e-08
1.6530460833423378561e-08
1.6507552717726446784e-08
1.6484674199020049469e-08
1.6461871977273365863e-08
1.6438443208885409053e-08
1.6421549829753671909e-08
1.6015625476546052104e-08
1.6032017248047798101e-08
1.6017527982087003467e-08
1.599554898242987474e-08
1.5973247688519290327e-08
1.5951107946645129669e-08
1.5929002750442041958e-08
1.5906928079434566136e-08
1.5884884182983891375e-08
1.5862868780931844796e-08
1.5840926737144675271e-08
1.5818381700689703865e-08
1.580212570513730464e-08
1.5389952335905677515e-08
1.5405828045447437518e-08
1.5391958914036151457e-08
1.5370860264126890023e-08
1.5349425141759858049e-08
1.5328150163088886528e-08
1.5306908227066633299e-08
1.5285696072754466697e-08
1.5264511066586124554e-08
1.5243397084220780821e-08
1.5221702119903968887e-08
1.5206048722261585533e-08
8.3194663466264304058e-09
8.326351519027495795e-09
8.3181952394245163565e-09
8.3066046896647729012e-09
8.2950676931650240399e-09
8.2835724674578636745e-09
8.2720939502669995687e-09
8.2606314043192429637e-09
8.2491847564084346694e-09
8.2377539109307302438e-09
8.2263389695099762513e-09
8.2149397556876931567e-09
8.2035564210835544139e-09
8.1921888854751159106e-09
8.1808370346435697102e-09
8.1695010431628975873e-09
8.1581798764983698602e-09
8.1468920762770146832e-09
8.1353311565028673817e-09
8.1269364244979217972e-09
8.0168133803504651664e-09
8.0234544330620726229e-09
8.0155940924400953821e-09
8.0044254848371954328e-09
7.9933082922991154357e-09
7.982231325739216219e-09
7.9711704809460091991e-09
7.9601249336680541037e-09
7.9490947479848740458e-09
7.9380797987852028533e-09
7.9270801754669839291e-09
7.9160957138814293323e-09
7.9051265147358099515e-09
7.8941725627225943404e-09
7.8832338042467273278e-09
7.8723101450850248674e-09
7.8614016853631655046e-09
7.8505082810098165123e-09
7.839629277314907878e-09
7.8287823174477986604e-09
7.8176739804667332473e-09
7.8095931992441995956e-09
7.7359365778513410057e-09
7.7422802841462488929e-09
7.7346933800575747247e-09
7.7239197216439907931e-09
7.7131931253288589703e-09
7.7025044303468301216e-09
7.691831198136737072e-09
7.6811728401529433101e-09
7.670529169128077814e-09
7.6599003248077422235e-09
7.649286229890679105e-09
7.6386867895003756576e-09
7.62810208974702848e-09
7.6175320111194006906e-09
7.6069766340757556683e-09
7.5964358371929790927e-09
7.5859097019844247205e-09
7.5753980994177470852e-09
7.5649011561767273709e-09
7.5544186888050191241e-09
7.5439507300758275796e-09
7.5334973854185032666e-09
7.5230574863155713493e-09
7.5126516360728789473e-09
7.5019599032885892695e-09
7.4942202973175838538e-09
7.4545246666410949209e-09
7.4606379410356594092e-09
7.453308425409758904e-09
7.4429190130055513602e-09
7.4325827953460374979e-09
7.4222830005626940167e-09
7.4119982143945373497e-09
7.4017276342995320317e-09
7.3914712431469503837e-09
7.381229110175705697e-09
7.3710012143649118365e-09
7.3607875037307109175e-09
7.3505878937076901236e-09
7.340402468831693873e-09
7.3302311078184244684e-09
7.3200739240800564003e-09
7.3099307849660718302e-09
7.2998016647753487406e-09
7.2896865740541975778e-09
7.2795855686163555497e-09
7.2694984780819708425e-09
7.259425440660623638e-09
7.2493663838537606106e-09
7.239321230546713112e-09
7.2292893736364123749e-09
7.2192869804956160021e-09
7.2090430170769864582e-09
7.2015957798471232165e-09
7.1834217834676119178e-09
7.1892473252905676007e-09
7.1821597313564250146e-09
7.1721420066035700058e-09
7.1621830482396499665e-09
7.1522580055005406124e-09
7.1423473439819800445e-09
7.1324505304626816121e-09
7.1225673673080095721e-09
7.1126978876869047722e-09
7.1028421412753043342e-09
7.0930000102327537911e-09
7.0831715729362730252e-09
7.0733566776894129869e-09
7.0635554491470305374e-09
7.0537678524582205869e-09
7.0439937805891578166e-09
7.034233222975974872e-09
7.0244861490424301009e-09
7.0147526629074454071e-09
7.0050326869977905078e-09
6.9953261214480732992e-09
6.9856330935600036985e-09
6.9759534314867713977e-09
6.9662871670672042018e-09
6.9566343835615595783e-09
6.9469942327138036482e-09
6.9373826658190871325e-09
6.9275382684944979832e-09
6.9203758381184198283e-09
6.9239412133619488247e-09
6.9296097509136056244e-09
6.9227929340214798509e-09
6.9131401368140110697e-09
6.903538920705398195e-09
6.8939710954530562765e-09
6.8844170867726346472e-09
6.8748763307662282913e-09
6.8653488599015464456e-09
6.85583452102039694e-09
6.8463334398476055114e-09
6.836845546947106987e-09
6.8273707514615011706e-09
6.8179091704938515448e-09
6.8084606413963026254e-09
6.7990251965976042692e-09
6.7896028863750555578e-09
6.7801935944621406143e-09
6.7707973996296148111e-09
6.7614141523330560944e-09
6.7520439810369818732e-09
6.742686818457438343e-09
6.7333425692767284786e-09
6.7240113554092473642e-09
6.7146930177028982554e-09
6.7053875485452794229e-09
6.696095048034846071e-09
6.6868155095724406081e-09
6.677548089781536156e-09
6.6683081005749239404e-09
6.6588443997988680247e-09
6.6519554650186101306e-09
1.6999844528994693914e-08
1.7049888817765789571e-08
1.7033131695532194042e-08
1.7004290042439438747e-08
1.697502082474190665e-08
1.6945905568327894274e-08
1.6916848110848127735e-08
1.6887845510595152118e-08
1.6858897664797086811e-08
1.6830004137333588081e-08
1.6801164917548941746e-08
1.6772379976128313575e-08
1.6743648984350558273e-08
1.671497207675606315e-08
1.6686349083760335367e-08
1.6657779741174079917e-08
1.6629263988741110011e-08
1.6600801684309990704e-08
1.6572392937201219462e-08
1.6544037509156677114e-08
1.6515735171604211823e-08
1.6487486010267475378e-08
1.6459289680419059995e-08
1.6431146295142989343e-08
1.6403055735554099693e-08
1.6375017861081847145e-08
1.6347032504264790545e-08
1.6319099630895041098e-08
1.6291219291832179268e-08
1.6263391029876500134e-08
1.6235617606658709098e-08
1.6207819556484609452e-08
1.6181879496142696544e-08
1.4642922238618875315e-06
1.4662048200580843857e-06
1.463724941362586016e-06
1.4610473830309733543e-06
1.4583445086990492658e-06
1.4564424544308371598e-06
1.32589805718761666e-06
1.328925226230215213e-06
1.3273909841188608504e-06
1.3249773407464206624e-06
1.3225825300155953532e-06
1.3201988066904364469e-06
1.317819841374892107e-06
1.315445480034449841e-06
1.3130757141642119147e-06
1.3107105144859612517e-06
1.3083498784786573856e-06
1.3059938039896810659e-06
1.3036422664466109394e-06
1.3012952736584300942e-06
1.2989528128509063273e-06
1.2966148650441478143e-06
1.2942814226930256184e-06
1.2919524763663238097e-06
1.2896280303282230852e-06
1.2873080673620736368e-06
1.2849925710466069586e-06
1.2826815444201990535e-06
1.280374963812065495e-06
1.2780728336270473888e-06
1.275775144413292753e-06
1.2734818847910522193e-06
1.2711930378567044172e-06
1.2689086052150419919e-06
1.2666285821950672392e-06
1.2643529561563772558e-06
1.2620816866859266561e-06
1.2598149766512579054e-06
1.2575491098929478289e-06
1.2554231549777671961e-06
6.5617655760393759235e-05
6.5662487459489584794e-05
6.5594622501391046951e-05
6.5502741070986786396e-05
6.5412049006132122692e-05
6.5319588476974319784e-05
6.5251633536094058108e-05
6.0791210056057666034e-05
6.0840663934431338743e-05
6.0780616085178882594e-05
6.069592330522607178e-05
6.0611698197241957887e-05
6.0527752606468599285e-05
6.0443928058653198629e-05
6.0360219552364981395e-05
6.0276627061977196157e-05
6.0193149970728718049e-05
6.01097882709327163e-05
6.0026542018684632244e-05
5.9943410653899684322e-05
5.986039443143235288e-05
5.9777493141988067584e-05
5.9694706375996704848e-05
5.9612033998197680744e-05
5.9529475819758931679e-05
5.9447032034323404111e-05
5.9364702312554408557e-05
5.9282486284646874119e-05
5.92003841065584044e-05
5.9118395246224460758e-05
5.9036519868168670663e-05
5.8954757828148323078e-05
5.8873108906530736007e-05
5.879157265051817091e-05
5.8710149250746302351e-05
5.8628838568241248828e-05
5.8547640365054657099e-05
5.846655447387951555e-05
5.8385575232350539953e-05
5.8304832095015885689e-05
5.8222175737093340554e-05
5.8161824238582626788e-05
2.4838856777234745555e-12
2.490558444386265825e-12
2.4901840912501078572e-12
2.4875093683195037952e-12
2.4842116450336933466e-12
2.4809869878967064021e-12
2.4777736032405183301e-12
2.4745576676971182063e-12
2.4714154914493304208e-12
2.4678781022895300091e-12
2.4646938349095460478e-12
3.8707074837217212216e-12
3.8795031575195180535e-12
3.8757444060231684581e-12
3.8706184561853708982e-12
3.8654819318553898907e-12
3.8603589992879353728e-12
3.8552433694881021515e-12
3.8501347816759859058e-12
3.8450333012195741247e-12
3.8399388041924292332e-12
3.8348513943469688962e-12
3.8297710229017367558e-12
3.8246976253141592913e-12
3.8196312101972998671e-12
3.8145718510062355585e-12
3.8095194047086914725e-12
3.8044739875025426555e-12
3.7994355651715898931e-12
3.7944040315612951383e-12
3.7893794889541260243e-12
3.7843618888250885339e-12
3.7793512111205676194e-12
3.7743473997590433388e-12
3.7693505650868399609e-12
3.7643606137914097576e-12
3.7593775160179594216e-12
3.7544013500886014324e-12
3.7494319938277083765e-12
3.7444695456720721283e-12
3.739513941715107159e-12
3.7345651640717590255e-12
3.7296232338359686064e-12
3.7246878334806598514e-12
3.7197656689149418899e-12
3.7147564762635824041e-12
3.7106767647976939251e-12
2.6327576075944453802e-12
2.6428637500066687935e-12
2.6459195390836746775e-12
2.6436931145233893935e-12
2.640498693613491935e-12
2.6370297767314925803e-12
2.6335986695086161501e-12
2.6301748478935642366e-12
2.6267559588806947558e-12
2.623341605161243235e-12
2.6199332453686020008e-12
2.6165289538650249989e-12
2.6131289036927280895e-12
2.6097334971400977824e-12
2.6063426467022004278e-12
2.602956561830606596e-12
2.5995756521364387228e-12
2.5961916681730726443e-12
2.5928859738306101335e-12
2.5891604120485315282e-12
2.5858145732901999838e-12
4.0656014991583283999e-12
4.0734356619969659217e-12
4.0705567911634421124e-12
4.0653741985785051368e-12