/*--------------------------------*- C++ -*----------------------------------*\
  =========                 |
  \\      /  F ield         | OpenFOAM: The Open Source CFD Toolbox
   \\    /   O peration     | Website:  https://openfoam.org
    \\  /    A nd           | Version:  12
     \\/     M anipulation  |
\*---------------------------------------------------------------------------*/
FoamFile
{
    format      ascii;
    class       volScalarField;
    location    "1e-05";
    object      p;
}
// * * * * * * * * * * * * * * * * * * * * * * * * * * * * * * * * * * * * * //

dimensions      [1 -1 -2 0 0 0 0];

internalField   nonuniform List<scalar> 
106891
(
99999.997008666861802
99999.996999991999473
99999.997005750876269
99999.997005886791158
99999.997001910684048
99999.997002976801014
99999.997006765537662
99999.996997324662516
99999.996956607719767
99999.99691415221605
99999.996869536102167
99999.996997615962755
99999.997004578224733
99999.997001071140403
99999.996998611881281
99999.996999574374058
99999.997000448871404
99999.997000755276531
99999.997000823888811
99999.997000838149688
99999.99700084340293
99999.997000848685275
99999.997000854084035
99999.997000860050321
99999.997000864575966
99999.99700087007659
99999.997000875373487
99999.997000879971893
99999.997000885618036
99999.997000891104108
99999.997000896852114
99999.997000901668798
99999.997000906791072
99999.997000912248041
99999.99700091786508
99999.997000923307496
99999.997000928313355
99999.997000933522941
99999.997000939343707
99999.997000944349566
99999.997000950068468
99999.997000954434043
99999.997000961899175
99999.997001051699044
99999.997001404306502
99999.997000951130758
99999.996996417961782
99999.996997041569557
99999.997005945435376
99999.997007922036573
99999.996998892267584
99999.997005552737392
99999.997004995078896
99999.997000399540411
99999.99700005982595
99999.997001403506147
99999.997002550240722
99999.997002446427359
99999.997002700634766
99999.99700234219199
99999.997002554271603
99999.997002305681235
99999.997002424192033
99999.99700435482373
99999.997007260186365
99999.996997144262423
99999.996956566465087
99999.996913502487587
99999.996863056512666
99999.996997652342543
99999.997004351243959
99999.997000279996428
99999.996998475922737
99999.99699959976715
99999.997000356757781
99999.997000585266505
99999.997000632429263
99999.997000643212232
99999.997000649018446
99999.997000654111616
99999.997000659350306
99999.997000664283405
99999.997000670031412
99999.997000675124582
99999.997000680057681
99999.997000685587409
99999.997000691320864
99999.997000696632313
99999.997000701376237
99999.997000706614926
99999.997000712013687
99999.997000718009076
99999.997000723553356
99999.997000728049898
99999.997000733594177
99999.997000739225768
99999.997000744042452
99999.997000748713617
99999.997000752773602
99999.997000816947548
99999.997001206313143
99999.997001151059521
99999.996996494330233
99999.996995656591025
99999.997006208403036
99999.997007748810574
99999.996998749586055
99999.997005552228075
99999.997004712364287
99999.997000078990823
99999.996999578826944
99999.997000280913198
99999.997001401803573
99999.997002058385988
99999.997001970317797
99999.997002190211788
99999.997002289732336
99999.997001934520085
99999.997002332398552
99999.997004430333618
99999.99700739774562
99999.996997385431314
99999.996957038863911
99999.996914010349428
99999.996862217449234
99999.996997043010197
99999.997004049801035
99999.997000398914679
99999.996998300877749
99999.996999434311874
99999.997000327944988
99999.997000634859432
99999.997000704010134
99999.997000718562049
99999.997000724746613
99999.997000730247237
99999.99700073551503
99999.997000740288058
99999.997000746312551
99999.997000751041924
99999.99700075641158
99999.997000761606614
99999.997000767165446
99999.997000772447791
99999.997000777642825
99999.997000783027033
99999.997000788585865
99999.997000794159248
99999.997000799354282
99999.99700080488401
99999.997000809817109
99999.997000815332285
99999.997000820076209
99999.99700082486379
99999.997000842238776
99999.99700096239394
99999.997001217881916
99999.997000395800569
99999.996996419577044
99999.99699638733
99999.997005325654754
99999.997006951278308
99999.996999026596313
99999.997005099445232
99999.997003682612558
99999.996999708993826
99999.996999925599084
99999.997001379379071
99999.997002247182536
99999.997002541233087
99999.997002642194275
99999.997002664997126
99999.997002689167857
99999.997003037133254
99999.997004890683456
99999.997007724377909
99999.996997724811081
99999.996957473907969
99999.996914155839477
99999.996860188388382
99999.996997554189875
99999.997004099219339
99999.997000212897547
99999.996998678077944
99999.996999844806851
99999.997000615068828
99999.997000859380933
99999.997000911782379
99999.997000923496671
99999.997000929419301
99999.997000934818061
99999.997000940114958
99999.997000945266336
99999.997000950126676
99999.997000955336262
99999.997000960836885
99999.997000966715859
99999.997000971721718
99999.997000976873096
99999.997000982228201
99999.997000987801584
99999.997000993374968
99999.997000998351723
99999.997001003750484
99999.997001009134692
99999.997001014315174
99999.997001018942683
99999.99700102537463
99999.997001102514332
99999.997001471710973
99999.997001230731257
99999.996996708025108
99999.996996355592273
99999.997005467448616
99999.99700762523571
99999.996998480623006
99999.99700555675372
99999.997004578719498
99999.996999616196263
99999.99699948100897
99999.997001134426682
99999.99700219227816
99999.997002593765501
99999.997002696240088
99999.997002732663532
99999.997002735050046
99999.997002758056624
99999.997003091266379
99999.997004933509743
99999.997007793092052
99999.996997920869035
99999.996957307113917
99999.996910516812932
99999.99686852353625
99999.996997258131159
99999.997003995216801
99999.997000528950593
99999.996998666552827
99999.996999490031158
99999.997000425020815
99999.997000814866624
99999.997000919218408
99999.997000943068997
99999.997000951057998
99999.997000956151169
99999.997000961375306
99999.997000966497581
99999.997000972143724
99999.997000976960408
99999.99700098267931
99999.997000987728825
99999.997000992880203
99999.997000998584554
99999.997001003808691
99999.997001009163796
99999.997001015013666
99999.997001019815798
99999.997001024792553
99999.997001030336833
99999.997001034964342
99999.997001038005692
99999.997001097479369
99999.997001490235562
99999.997001549912966
99999.996997061592992
99999.996995709414477
99999.997006266072276
99999.997007274185307
99999.996998617629288
99999.997005482626264
99999.997004109463887
99999.996999611699721
99999.996999786657398
99999.997001386029297
99999.997002352349227
99999.997002693504328
99999.997002782096388
99999.997002800009795
99999.997002814459847
99999.997003128533834
99999.997004960532649
99999.997007844154723
99999.996998074551811
99999.996957466690219
99999.996909066889202
99999.996867672845838
99999.996997653026483
99999.997003980679438
99999.997000430827029
99999.996998706250452
99999.996999568058527
99999.997000486342586
99999.99700085222139
99999.997000943360035
99999.997000962859602
99999.997000969815417
99999.997000975039555
99999.997000980540179
99999.997000985822524
99999.997000991046662
99999.997000996314455
99999.997001001233002
99999.997001006617211
99999.997001011972316
99999.997001017487491
99999.997001022784389
99999.997001028532395
99999.997001033349079
99999.997001039082534
99999.997001044132048
99999.997001048788661
99999.997001062161871
99999.997001164054382
99999.997001462426852
99999.997000945135369
99999.996996896661585
99999.996996180532733
99999.997005591343623
99999.997007659636438
99999.996998557428014
99999.997005127486773
99999.997004559700144
99999.996999926544959
99999.996999749229872
99999.997001300551347
99999.997002313408302
99999.997002686359338
99999.997002785603399
99999.997002804782824
99999.997002817297471
99999.997003129654331
99999.997004965902306
99999.997007900063181
99999.996998219547095
99999.996956201313878
99999.996904441999504
99999.996883801795775
99999.996997436217498
99999.997004218646907
99999.997000544055481
99999.996998754591914
99999.996999642869923
99999.997000533301616
99999.997000870120246
99999.997000952280359
99999.997000968869543
99999.997000975810806
99999.997000980525627
99999.997000986229978
99999.997000991599634
99999.997000996154384
99999.99700100166956
99999.997001007461222
99999.997001012437977
99999.997001018040464
99999.997001023672055
99999.99700102909992
99999.997001033756533
99999.997001039329916
99999.997001043957425
99999.997001047551748
99999.997001113850274
99999.99700149356795
99999.997001433046535
99999.996997021211428
99999.996995986133697
99999.99700556222524
99999.99700744439906
99999.996998734015506
99999.997005261902814
99999.99700424427283
99999.996999888448045
99999.996999946364667
99999.997001449737581
99999.997002379095647
99999.997002710355446
99999.997002791977138
99999.997002815900487
99999.997003129785298
99999.997004975171876
99999.997007974947337
99999.996998130271095
99999.996953645502799
99999.996902974264231
99999.996892896204372
99999.996997555615962
99999.99700446263887
99999.997000370349269
99999.99699883905123
99999.996999946815777
99999.997000685470994
99999.997000916831894
99999.99700096451852
99999.997000974719413
99999.997000980918529
99999.997000987044885
99999.997000991555979
99999.997000996969291
99999.997001002106117
99999.99700100706832
99999.997001012830879
99999.997001017924049
99999.997001023584744
99999.997001028852537
99999.997001034556888
99999.997001038325834
99999.997001041250769
99999.997001095514861
99999.997001487587113
99999.997001648254809
99999.996997306720004
99999.996995501904166
99999.997006141740712
99999.99700750784541
99999.996998647940927
99999.997005114113563
99999.997004456585273
99999.997000065166503
99999.996999700670131
99999.997001167663257
99999.997002235570108
99999.997002661577426
99999.997002779113245
99999.997002813106519
99999.997003129159566
99999.997004978664336
99999.997008007456316
99999.996998215981876
99999.996953473659232
99999.996902441271232
99999.996894721902208
99999.996997621565242
99999.99700419108558
99999.997000348885194
99999.996999026901904
99999.997000081595615
99999.997000733405002
99999.997000931092771
99999.997000971416128
99999.99700098070025
99999.997000986739295
99999.997000992138055
99999.997000997755094
99999.997001002950128
99999.997001007199287
99999.997001013485715
99999.997001018666197
99999.997001023759367
99999.997001028750674
99999.997001034906134
99999.997001038806047
99999.997001042065676
99999.997001094408915
99999.997001451803953
99999.997001578347408
99999.996997556110728
99999.996995686655282
99999.99700550668058
99999.997007336191018
99999.996998864400666
99999.997005166762392
99999.99700435718114
99999.997000067931367
99999.996999731505639
99999.997001177049242
99999.997002236399567
99999.997002658928977
99999.99700278689852
99999.997003124357434
99999.997004980032216
99999.997008032267331
99999.996998309507035
99999.996953624257003
99999.996902502141893
99999.996894937328761
99999.996997181224287
99999.997004515360459
99999.997000204530195
99999.996998430113308
99999.99699972892995
99999.997000612784177
99999.997000899427803
99999.997000961637241
99999.997000975490664
99999.997000981660676
99999.997000986608327
99999.997000992123503
99999.997000997609575
99999.997001002731849
99999.997001007897779
99999.997001013529371
99999.997001018855372
99999.997001023963094
99999.997001029347302
99999.997001034527784
99999.997001036535949
99999.997001082956558
99999.997001434996491
99999.997001633353648
99999.996997719004867
99999.996995813722606
99999.99700560135534
99999.997007410245715
99999.996998687216546
99999.997005145181902
99999.997004532400751
99999.997000221468625
99999.996999712646357
99999.997001106821699
99999.997002187650651
99999.997002643867745
99999.997003085867618
99999.997004964170628
99999.997008002887014
99999.996998228423763
99999.996953484223923
99999.996902335260529
99999.996894757816335
99999.996997098816792
99999.997004173637833
99999.997000435134396
99999.996998395319679
99999.996999282069737
99999.997000335846678
99999.997000801799004
99999.997000936564291
99999.997000968884095
99999.997000980190933
99999.997000986128114
99999.99700099088659
99999.997000996940187
99999.997001002266188
99999.997001007359358
99999.997001012699911
99999.997001018229639
99999.997001023453777
99999.99700102902716
99999.997001034367713
99999.997001038354938
99999.997001041891053
99999.997001099894987
99999.997001470605028
99999.997001543772058
99999.996997330032173
99999.996995483568753
99999.997005488155992
99999.997007367099286
99999.996998852700926
99999.997005056560738
99999.997004704273422
99999.997000388189917
99999.996999653245439
99999.997001001436729
99999.997002139643882
99999.997002930758754
99999.99700491024123
99999.997007912534173
99999.996997951879166
99999.996952951842104
99999.996901675898698
99999.996894024181529
99999.996997631853446
99999.997003832861083
99999.997000592324184
99999.996998725750018
99999.99699938770209
99999.997000342307729
99999.99700079629838
99999.997000935851247
99999.997000972973183
99999.997000983479666
99999.997000988369109
99999.997000994437258
99999.997001001567696
99999.997001006486244
99999.997001012132387
99999.997001018244191
99999.997001023613848
99999.997001029056264
99999.997001034367713
99999.997001038849703
99999.997001041076146
99999.997001098818146
99999.997001517418539
99999.997001722425921
99999.996997223919607
99999.996995039808098
99999.997005882541998
99999.997007380952709
99999.996998825736227
99999.997004898250452
99999.997004756703973
99999.997000404226128
99999.996999549417524
99999.997000877279788
99999.997002301854081
99999.997004618082428
99999.997007760306587
99999.996997930211364
99999.996953017020132
99999.996901588805486
99999.996894290015916
99999.996997367692529
99999.997004022166948
99999.99700085259974
99999.996998842601897
99999.99699934652017
99999.997000316841877
99999.997000754607143
99999.997000902963919
99999.997000955278054
99999.997000975636183
99999.997000987365027
99999.997000998162548
99999.997001004681806
99999.997001009745873
99999.997001016046852
99999.997001023162738
99999.997001029245439
99999.997001034716959
99999.997001039257157
99999.997001041876501
99999.997001089912374
99999.997001475188881
99999.997001771538635
99999.996997677953914
99999.996995003704797
99999.997005705838092
99999.997008062229725
99999.996999136797967
99999.997005352925044
99999.997005206285394
99999.997000693925656
99999.997000083647436
99999.997001573792659
99999.997004283461138
99999.997007630445296
99999.99699782958487
99999.996952562214574
99999.996901305756182
99999.996897031989647
99999.99699735933973
99999.997003982804017
99999.997000892995857
99999.996998820250155
99999.99699934173259
99999.997000282397494
99999.99700073216809
99999.997000847943127
99999.997000902178115
99999.997000903851585
99999.997000938223209
99999.997000974268303
99999.99700099331676
99999.997001004347112
99999.997001016614377
99999.997001026218641
99999.997001034033019
99999.99700103860232
99999.997001041250769
99999.997001089039259
99999.997001473544515
99999.997001780066057
99999.996997714435565
99999.996995020497707
99999.997005714045372
99999.997008058795473
99999.996999222756131
99999.997005371405976
99999.997005312354304
99999.997001066934899
99999.997000833041966
99999.997003723095986
99999.997007356563699
99999.996996841699001
99999.996950331420521
99999.99690910956997
99999.996897160061053
99999.99699801436509
99999.997003981101443
99999.997000562754693
99999.996998866306967
99999.996999520619283
99999.996999904236873
99999.997000411487534
99999.997000717674382
99999.997000811286853
99999.997000859017135
99999.997000872463104
99999.997000914780074
99999.997000918534468
99999.997000961244339
99999.997001006340724
99999.997001027368242
99999.997001035095309
99999.997001038471353
99999.997001085866941
99999.997001470052055
99999.997001775263925
99999.996997721726075
99999.996995043809875
99999.99700571167341
99999.996997960901354
99999.997004711563932
99999.997001323456061
99999.9969993968989
99999.996999032518943
99999.996999598253751
99999.997000336035853
99999.997000418617972
99999.997000152958208
99999.997000433577341
99999.997000656687305
99999.997000743256649
99999.997000789473532
99999.997000899864361
99999.997000969480723
99999.997000994990231
99999.997001001465833
99999.997001050229301
99999.99700143391965
99999.997001738738618
99999.996997686903342
99999.996995015389984
99999.997005694924155
99999.996998160044313
99999.997004852993996
99999.997001651630853
99999.996999777984456
99999.997000073592062
99999.997000580144231
99999.996999658891582
99999.996999791750568
99999.997000388495508
99999.997000516654225
99999.997000176692382
99999.997000504634343
99999.997000806877622
99999.997000918607228
99999.997000946124899
99999.9970009974204
99999.99700138164917
99999.997001682626433
99999.996997626440134
99999.996994993329281
99999.997005763463676
99999.996998466493096
99999.997005086232093
99999.997001953539439
99999.99699907975446
99999.996999341441551
99999.997000329458388
99999.997000097151613
99999.996999713912373
99999.997000191899133
99999.997000517396373
99999.997000619623577
99999.997000687202672
99999.997001072290004
99999.99700136789761
99999.996997329435544
99999.996994841349078
99999.997005683544558
99999.996998388756765
99999.997004575081519
99999.997001762676518
99999.996999197610421
99999.996999603972654
99999.997000243121875
99999.997000502276933
99999.997000607778318
99999.997000981020392
99999.997001203155378
99999.996997300651856
99999.996995762980077
99999.99700627438142
99999.996998730115592
99999.997005003664526
99999.997002195799723
99999.996999992465135
99999.997000403192942
99999.997000867020688
99999.99700107445824
99999.997001444455236
99999.997001669413294
99999.996998249669559
99999.996997040245333
99999.997006193560082
100000.00184550319682
100000.0018483048043
100000.00184651145537
100000.00184433466347
100000.00184294347127
100000.00184161445941
100000.00184023144539
100000.00183882484271
100000.00183741499495
100000.00183600644232
100000.00183460058179
100000.00183319620555
100000.00183179364831
100000.0018303921388
100000.00182900087384
100000.00182769776438
100000.00182637084799
100000.00182377101737
100000.00182273214159
100000.00182504761324
100000.01394106542284
100000.0139395014121
100000.01393461710541
100000.01392701304576
100000.01392113862676
100000.01391572221473
100000.01391021329619
100000.01390464011638
100000.0138990568521
100000.01389347798249
100000.01388790612691
100000.01388234183833
100000.01387678501487
100000.01387123789755
100000.01386569748865
100000.01386016601464
100000.01385467592627
100000.01384924589365
100000.01384326121479
100000.01383669482311
100000.01383449787681
100000.0138302846899
100000.05303965644271
100000.05301576630154
100000.05299399129581
100000.05297292012256
100000.05294912152749
100000.05292449487024
100000.05290200229501
100000.05287974743987
100000.05285732694028
100000.05283485278778
100000.05281239298347
100000.05278996156994
100000.05276755994419
100000.05274518960505
100000.05272285213869
100000.05270054687571
100000.05267827172065
100000.05265602716827
100000.05263384699356
100000.05261181280366
100000.05258931734716
100000.05256519942486
100000.05254602711648
100000.05252564899274
100000.05250245344359
100000.05248190055136
100000.13469617682858
100000.1345611307479
100000.13448375363078
100000.13441436647554
100000.13434952734679
100000.13428173493594
100000.13421598394052
100000.13415132385853
100000.13408651048667
100000.13402159241377
100000.13395671099715
100000.13389191144961
100000.13382719813671
100000.13376256951597
100000.13369802916714
100000.13363358160132
100000.1335692244902
100000.13350495345367
100000.13344076857902
100000.13337668328313
100000.13331274772645
100000.13324877939885
100000.13318366919702
100000.13311951607466
100000.13305943408341
100000.13299483637093
100000.13293568629888
100000.13286924755084
100000.27640390548913
100000.27604321036779
100000.27564347414591
100000.27541979269881
100000.27524213584547
100000.27507100459479
100000.27490007922461
100000.27473107642436
100000.27456239231105
100000.27439358242555
100000.27422486424621
100000.27405635343166
100000.27388807905663
100000.27372003668279
100000.27355222203187
100000.2733846429619
100000.27321730884432
100000.27305021353823
100000.27288334796322
100000.27271671415656
100000.27255031754612
100000.27238419285277
100000.27221831319912
100000.27205187748768
100000.27188500198827
100000.27172168219113
100000.27155618995312
100000.27139478811296
100000.27123179221235
100000.27106442066724
100000.42312306826352
100000.42502212163527
100000.42420427495381
100000.42324956992525
100000.42277521104552
100000.42243232960755
100000.42210610568873
100000.42178243093076
100000.42145986351534
100000.42113735515159
100000.42081500330823
100000.42049301230873
100000.42017144958663
100000.41985032675439
100000.41952963281074
100000.41920936110546
100000.41888952541922
100000.41857013750996
100000.41825118960696
100000.41793266884633
100000.41761457444227
100000.41729691185174
100000.4169796994538
100000.41666295145114
100000.41634631398483
100000.41602915615658
100000.41571356415807
100000.41539823487983
100000.41508320173307
100000.41477289442264
100000.41446068824735
100000.41415448585758
100000.5529537541297
100000.55654076728388
100000.55507228101487
100000.55331842665328
100000.55249447531241
100000.55192465969594
100000.55138999482733
100000.55086033049156
100000.55033157469006
100000.54980315065768
100000.54927527936525
100000.54874810039473
100000.54822164920915
100000.54769592701632
100000.54717091903149
100000.54664661742572
100000.54612304018519
100000.5456002002029
100000.54507808887865
100000.54455669011804
100000.54403600007936
100000.54351602602401
100000.54299678088864
100000.54247827942891
100000.54196037944348
100000.54144250998797
100000.54092540996498
100000.54040923493449
100000.539892128465
100000.53937950079853
100000.53887072684302
100000.5383792569628
100000.5378724958573
100000.64852724317461
100000.64515829307493
100000.64233090863854
100000.64126499448321
100000.63993036324973
100000.63336337174405
100000.60403420927469
100000.61129013303434
100000.60835959113319
100000.60539336672809
100000.60422884247964
100000.60350876823941
100000.60285381317954
100000.60220851260237
100000.60156441717118
100000.60092093540879
100000.60027825483121
100000.59963645134121
100000.5989955389814
100000.59835551586002
100000.59771636145888
100000.59707806761435
100000.59644065531029
100000.59580414123775
100000.59516851679655
100000.5945337593439
100000.5938998642232
100000.59326684269763
100000.59263470230508
100000.59200345305726
100000.59137304584146
100000.59074316923216
100000.59011381886376
100000.58948545831663
100000.58885636764171
100000.5882287612767
100000.58760728935886
100000.58702584258572
100000.58633754860784
100000.5846426528442
100000.77591863274574
100000.78719154950522
100000.7816712892818
100000.77771415264579
100000.77630708485958
100000.7745317772351
100000.76468642437248
100000.72872111097968
100000.74003055751382
100000.73504117663833
100000.73086281197902
100000.72936906534596
100000.72845051428885
100000.72761755483225
100000.72679841093486
100000.7259809870302
100000.7251644765347
100000.72434903864632
100000.72353471853421
100000.72272152091318
100000.72190944959584
100000.72109847342654
100000.72028858457634
100000.71947980859841
100000.71867216574901
100000.71786564704962
100000.71706021905993
100000.71625588279858
100000.71545265018358
100000.71465052575513
100000.71384952228982
100000.71304961148417
100000.71225060573488
100000.71145228759269
100000.71065509613254
100000.70985760854091
100000.70905996423971
100000.70826936601952
100000.70753684169904
100000.70659347255423
100000.70433719726861
100000.6951901949069
99999.999999812163878
99999.999999811901944
99999.999999812207534
99999.999999812236638
99999.999999811610905
99999.999999810897862
99999.999999817082426
99999.999999835010385
99999.999999843246769
99999.999999833584297
99999.999999836843926
99999.99999981286237
99999.999999811916496
99999.999999812294845
99999.999999811974703
99999.999999811727321
99999.999999812382157
99999.999999811741873
99999.999999811363523
99999.99999981156725
99999.999999811072485
99999.999999812222086
99999.99999981217843
99999.999999811741873
99999.999999811640009
99999.999999811523594
99999.999999812411261
99999.999999812207534
99999.999999811610905
99999.999999812134774
99999.999999811334419
99999.999999812454917
99999.999999811057933
99999.999999811756425
99999.999999812309397
99999.999999812425813
99999.999999811479938
99999.999999811654561
99999.999999811348971
99999.999999812003807
99999.999999811654561
99999.999999812236638
99999.999999811290763
99999.999999812658643
99999.999999811581802
99999.999999811203452
99999.99999981217843
99999.999999810359441
99999.999999812964234
99999.999999813444447
99999.999999811698217
99999.999999812076567
99999.99999981180008
99999.999999811916496
99999.999999812775059
99999.999999810839654
99999.999999812003807
99999.999999812149326
99999.999999813080649
99999.999999811727321
99999.999999810868758
99999.999999813342583
99999.999999811174348
99999.999999817213393
99999.999999834559276
99999.999999843043042
99999.999999833700713
99999.999999836043571
99999.999999811887392
99999.999999812003807
99999.999999811683665
99999.999999811727321
99999.999999811960151
99999.999999811727321
99999.999999811814632
99999.999999811596354
99999.999999811683665
99999.999999811479938
99999.999999811843736
99999.999999812091119
99999.999999811654561
99999.999999811712769
99999.999999811770977
99999.999999812192982
99999.999999811741873
99999.999999811960151
99999.999999812192982
99999.999999811989255
99999.999999812425813
99999.999999811829184
99999.999999811960151
99999.999999811392627
99999.999999811843736
99999.999999811829184
99999.999999812105671
99999.999999811858288
99999.99999981217843
99999.999999811974703
99999.99999981180008
99999.999999811770977
99999.999999811974703
99999.999999811887392
99999.999999811538146
99999.999999811931048
99999.99999981149449
99999.999999811348971
99999.999999812396709
99999.999999811450834
99999.999999812163878
99999.999999810941517
99999.999999811290763
99999.999999811974703
99999.999999812425813
99999.999999812440365
99999.999999811654561
99999.999999813226168
99999.999999811785528
99999.999999811232556
99999.99999981262954
99999.999999810897862
99999.999999817140633
99999.999999834471964
99999.999999843013939
99999.999999833642505
99999.999999836378265
99999.999999811916496
99999.999999811610905
99999.99999981187284
99999.999999812192982
99999.99999981225119
99999.999999811756425
99999.999999811931048
99999.999999811989255
99999.9999998119456
99999.999999812222086
99999.999999811989255
99999.999999811785528
99999.999999811887392
99999.999999811931048
99999.999999812149326
99999.9999998119456
99999.999999812047463
99999.999999811960151
99999.999999812149326
99999.999999812192982
99999.999999811814632
99999.999999811669113
99999.999999811843736
99999.999999812062015
99999.999999811814632
99999.999999812294845
99999.999999811901944
99999.99999981180008
99999.999999811931048
99999.999999812105671
99999.999999812003807
99999.999999811610905
99999.999999811640009
99999.999999811698217
99999.999999811436282
99999.999999812469468
99999.999999811465386
99999.999999812018359
99999.999999811887392
99999.999999811698217
99999.999999811479938
99999.999999812411261
99999.999999811014277
99999.999999812745955
99999.999999811843736
99999.999999812454917
99999.999999811974703
99999.999999811974703
99999.999999811378075
99999.999999816674972
99999.99999983451562
99999.999999843159458
99999.999999833104084
99999.999999837018549
99999.999999811785528
99999.999999811770977
99999.999999812047463
99999.999999811901944
99999.999999811770977
99999.999999811887392
99999.999999812003807
99999.999999811712769
99999.999999812003807
99999.999999811785528
99999.9999998119456
99999.99999981187284
99999.999999812120222
99999.999999811814632
99999.999999811770977
99999.999999811974703
99999.999999811989255
99999.999999811901944
99999.999999812280294
99999.999999812222086
99999.999999811814632
99999.999999811654561
99999.999999811741873
99999.9999998119456
99999.999999811814632
99999.999999811974703
99999.999999811683665
99999.999999811741873
99999.999999811669113
99999.999999812134774
99999.999999811698217
99999.999999811610905
99999.999999812134774
99999.999999811960151
99999.999999811450834
99999.999999812833266
99999.999999811625457
99999.999999811072485
99999.999999812149326
99999.999999811174348
99999.999999812323949
99999.999999811479938
99999.999999811974703
99999.999999812833266
99999.999999811421731
99999.99999981262954
99999.99999981180008
99999.999999811640009
99999.99999981180008
99999.999999815729097
99999.999999835563358
99999.999999842984835
99999.999999832638423
99999.999999836931238
99999.999999811931048
99999.999999811770977
99999.999999811712769
99999.99999981180008
99999.999999811829184
99999.999999811843736
99999.999999811698217
99999.999999811683665
99999.999999811712769
99999.999999811610905
99999.999999811756425
99999.9999998119456
99999.999999811887392
99999.999999811974703
99999.999999811843736
99999.999999812018359
99999.999999811465386
99999.999999812411261
99999.999999812032911
99999.999999811770977
99999.999999811931048
99999.999999811698217
99999.999999811465386
99999.999999811479938
99999.999999812018359
99999.999999811843736
99999.999999811916496
99999.9999998119456
99999.999999811931048
99999.999999811509042
99999.999999812032911
99999.99999981217843
99999.999999811843736
99999.999999812644091
99999.999999811363523
99999.999999812353053
99999.999999810970621
99999.999999811610905
99999.999999812192982
99999.999999811814632
99999.999999812222086
99999.999999812062015
99999.999999812585884
99999.999999811887392