/*--------------------------------*- C++ -*----------------------------------*\
  =========                 |
  \\      /  F ield         | OpenFOAM: The Open Source CFD Toolbox
   \\    /   O peration     | Website:  https://openfoam.org
    \\  /    A nd           | Version:  12
     \\/     M anipulation  |
\*---------------------------------------------------------------------------*/
FoamFile
{
    format      ascii;
    class       volScalarField;
    location    "1e-05";
    object      p_0;
}
// * * * * * * * * * * * * * * * * * * * * * * * * * * * * * * * * * * * * * //

dimensions      [1 -1 -2 0 0 0 0];

internalField   nonuniform List<scalar> 
106891
(
99999.997008585385629
99999.99699989988585
99999.997006042234716
99999.997005676472327
99999.997001718904357
99999.997002856340259
99999.997006801655516
99999.996998435861315
99999.996958711155457
99999.996915661657113
99999.996870716131525
99999.99699764943216
99999.997004658958758
99999.997000896226382
99999.996998596456251
99999.996999610768398
99999.997000464907615
99999.997000755931367
99999.997000819756067
99999.997000833100174
99999.997000838280655
99999.997000843519345
99999.997000848976313
99999.997000854986254
99999.99700085943914
99999.99700086498342
99999.997000870323973
99999.997000874922378
99999.997000880568521
99999.997000886054593
99999.997000891860807
99999.997000896604732
99999.997000901799765
99999.997000907256734
99999.997000912888325
99999.997000918330741
99999.997000923394808
99999.997000928560738
99999.997000934410607
99999.997000939416466
99999.997000945149921
99999.997000949646463
99999.997000956456759
99999.997001039897441
99999.997001387935597
99999.99700101664348
99999.996996570916963
99999.996996758709429
99999.997005977566005
99999.997007783109439
99999.996998846167116
99999.997005835946766
99999.997004743825528
99999.997000260977075
99999.997000113988179
99999.997001468000235
99999.997002578020329
99999.997002479154617
99999.99700269207824
99999.997002357151359
99999.997002563904971
99999.997002293515834
99999.997002401505597
99999.997004243356059
99999.997007274796488
99999.996998239323148
99999.996958654010086
99999.996915142051876
99999.996864489017753
99999.996997722890228
99999.997004407938221
99999.997000131712412
99999.996998491929844
99999.996999645285541
99999.997000379255041
99999.9970005951036
99999.997000638963073
99999.997000649207621
99999.997000654955627
99999.997000660136109
99999.997000665316591
99999.99700067024969
99999.997000675983145
99999.997000681192731
99999.997000686082174
99999.997000691611902
99999.997000697403564
99999.997000702715013
99999.997000707517145
99999.997000712653971
99999.997000718110939
99999.99700072412088
99999.99700072973792
99999.997000734132598
99999.997000739735086
99999.997000745410332
99999.997000750227016
99999.997000754985493
99999.997000758783543
99999.997000817616936
99999.997001195821213
99999.997001214243937
99999.996996691334061
99999.99699539548601
99999.997006220073672
99999.99700758754625
99999.996998735616216
99999.997005837620236
99999.997004465927603
99999.996999956929358
99999.996999668917852
99999.997000385090359
99999.997001420808374
99999.997002092626644
99999.997001966243261
99999.997002220261493
99999.99700228315487
99999.997001938609174
99999.997002325690119
99999.997004324250156
99999.997007410202059
99999.996998471819097
99999.996959115393111
99999.996915664800326
99999.996863779175328
99999.996997090653167
99999.99700413645769
99999.997000247749384
99999.996998310671188
99999.996999485665583
99999.997000356437638
99999.997000647432287
99999.997000711766304
99999.997000725372345
99999.997000731455046
99999.997000736926566
99999.997000742223463
99999.997000746967387
99999.997000753035536
99999.99700075777946
99999.997000763178221
99999.997000768373255
99999.997000773932086
99999.997000779228983
99999.997000784467673
99999.997000789851882
99999.997000795410713
99999.997000801013201
99999.997000806164579
99999.997000811708858
99999.997000816714717
99999.997000822186237
99999.997000827002921
99999.997000831761397
99999.997000847855816
99999.997000961506274
99999.997001222815015
99999.997000482399017
99999.996996562185814
99999.996996162459254
99999.99700534598378
99999.997006815028726
99999.996999028982827
99999.997005329583772
99999.99700345628662
99999.99699962347222
99999.997000000323169
99999.997001453200937
99999.997002286007046
99999.997002560237888
99999.9970026556839
99999.997002676755073
99999.997002699703444
99999.997003014956135
99999.997004769262276
99999.997007727288292
99999.996998803166207
99999.996959545154823
99999.996915860261652
99999.996861735446146
99999.996997614041902
99999.997004155273316
99999.997000077506527
99999.996998698014067
99999.996999889684957
99999.997000637333258
99999.997000868417672
99999.997000917137484
99999.997000928167836
99999.997000934061361
99999.997000939489226
99999.997000944800675
99999.997000949937501
99999.997000954841496
99999.997000960051082
99999.997000965551706
99999.997000971474336
99999.997000976451091
99999.997000981602469
99999.997000987001229
99999.997000992574613
99999.997000998191652
99999.997001003110199
99999.997001008567167
99999.997001013995032
99999.997001019160962
99999.997001023875782
99999.997001029827516
99999.997001101190108
99999.997001462543267
99999.997001297699171
99999.996996883128304
99999.996996110712644
99999.997005498633371
99999.997007456317078
99999.996998465401703
99999.997005848024855
99999.997004314427613
99999.996999488721485
99999.996999559880351
99999.997001228228328
99999.997002242511371
99999.997002616190002
99999.997002709831577
99999.997002743621124
99999.997002746109501
99999.997002767166123
99999.997003067081096
99999.997004810007638
99999.99700779147679
99999.996998992035515
99999.996959451193106
99999.996912352362415
99999.996868523696321
99999.99699734931346
99999.997004049320822
99999.997000399220269
99999.996998662973056
99999.996999535913346
99999.997000455143279
99999.997000827381271
99999.997000925068278
99999.99700094734726
99999.997000955117983
99999.997000960211153
99999.997000965406187
99999.997000970513909
99999.99700097621826
99999.997000981049496
99999.997000986797502
99999.997000991817913
99999.997000996983843
99999.997001002702746
99999.997001007970539
99999.997001013281988
99999.997001019160962
99999.997001023977646
99999.997001028925297
99999.997001034542336
99999.997001039242605
99999.997001042080228
99999.997001096475287
99999.997001476585865
99999.997001603609533
99999.996997255890165
99999.996995467401575
99999.997006264398806
99999.997007111393032
99999.996998621892999
99999.997005742799956
99999.997003853452043
99999.996999512382899
99999.996999868119019
99999.997001469513634
99999.997002394273295
99999.997002711927053
99999.997002793024876
99999.997002809715923
99999.997002821255592
99999.997003102398594
99999.99700483547349
99999.997007839134312
99999.996999138325918
99999.996959631505888
99999.996911033711513
99999.996867110705352
99999.996997744063265
99999.997004023956833
99999.997000304589164
99999.996998704853468
99999.996999612732907
99999.997000514529645
99999.997000863149879
99999.997000948365894
99999.997000966512132
99999.997000973366085
99999.997000978590222
99999.997000984076294
99999.997000989416847
99999.997000994611881
99999.997000999908778
99999.997001004870981
99999.99700101018243
99999.997001015552087
99999.997001021154574
99999.997001026436919
99999.99700103221403
99999.997001037030714
99999.997001042720512
99999.99700104787189
99999.997001052470296
99999.997001064853976
99999.997001160896616
99999.997001459007151
99999.997001016425202
99999.996997052861843
99999.996995963898371
99999.997005590470508
99999.997007527199457
99999.996998511953279
99999.997005424826057
99999.997004321368877
99999.996999802999198
99999.99699982025777
99999.997001385767362
99999.997002357922611
99999.997002705713385
99999.997002796619199
99999.99700281425612
99999.997002823933144
99999.997003103446332
99999.997004840013687
99999.997007889993256
99999.996999290495296
99999.996958521020133
99999.996906216314528
99999.996883106141468
99999.996997542169993
99999.997004264456336
99999.997000411778572
99999.996998753558728
99999.996999686918571
99999.997000559553271
99999.997000880262931
99999.997000957024284
99999.997000972536625
99999.997000979288714
99999.997000984032638
99999.997000989736989
99999.997000995092094
99999.997000999661395
99999.997001005220227
99999.997001011084649
99999.99700101595954
99999.997001021649339
99999.997001027266379
99999.997001032694243
99999.99700103737996
99999.997001042953343
99999.997001047653612
99999.99700105105876
99999.997001111973077
99999.99700148095144
99999.997001489231479
99999.996997202295461
99999.996995756824617
99999.997005566561711
99999.997007308047614
99999.996998712376808
99999.99700553106959
99999.997004005112103
99999.996999785260414
99999.997000019662664
99999.997001529161935
99999.997002419695491
99999.997002728399821
99999.997002802978386
99999.997002822710783
99999.997003103533643
99999.997004847915377
99999.997007960497285
99999.996999241790036
99999.996956118178787
99999.996904201980215
99999.99689346877858
99999.99699765497644
99999.997004505989025
99999.997000234128791
99999.996998853646801
99999.996999987837626
99999.997000705261598
99999.997000924282474
99999.997000968607608
99999.99700097827008
99999.997000984367332
99999.997000990581
99999.997000995092094
99999.997001000461751
99999.997001005656784
99999.997001010589884
99999.997001016366994
99999.997001021474716
99999.997001027120859
99999.997001032432308
99999.997001038165763
99999.997001042051124
99999.997001044859644
99999.997001094205189
99999.997001472569536
99999.997001694791834
99999.996997501235455
99999.99699527703342
99999.997006121528102
99999.99700734448561
99999.996998629751033
99999.997005387223908
99999.997004233839107
99999.996999938244699
99999.996999762501218
99999.997001254581846
99999.997002284348127
99999.997002683405299
99999.997002791365958
99999.997002820236958
99999.997003102878807
99999.99700485097128
99999.997007990634302
99999.996999328155653
99999.996955972063006
99999.996903630279121
99999.996895321251941
99999.996997705413378
99999.997004238146474
99999.997000223476789
99999.996999043956748
99999.997000118382857
99999.997000750779989
99999.997000937859411
99999.997000975359697
99999.997000984221813
99999.997000990188099
99999.997000995645067
99999.997001001247554
99999.997001006529899
99999.997001010691747
99999.997001017036382
99999.997001022231416
99999.99700102735369
99999.997001032301341
99999.997001038456801
99999.997001042516786
99999.997001045645447
99999.997001093521249
99999.997001438779989
99999.997001621741219
99999.996997735783225
99999.99699548757053
99999.997005484168767
99999.997007177793421
99999.99699885508744
99999.997005424855161
99999.997004136006581
99999.996999945229618
99999.996999792201677
99999.997001263065613
99999.997002285294002
99999.997002681484446
99999.997002796808374
99999.997003098658752
99999.997004852062673
99999.997008013597224
99999.996999418086489
99999.996956124072312
99999.996903697290691
99999.996895521413535
99999.996997265712707
99999.997004569784622
99999.997000050963834
99999.996998450922547
99999.996999779265025
99999.99700063704222
99999.997000908231712
99999.997000966061023
99999.997000979055883
99999.99700098518224
99999.997000990100787
99999.997000995586859
99999.997001001116587
99999.997001006209757
99999.997001011404791
99999.997001017065486
99999.997001022449695
99999.997001027557417
99999.99700103289797
99999.997001038194867
99999.997001040130272
99999.997001082389033
99999.997001421739697
99999.997001673138584
99999.996997895825189
99999.996995607798453
99999.997005593701033
99999.997007232770557
99999.996998682108824
99999.997005413868465
99999.997004316435778
99999.997000089599169
99999.996999766954104
99999.997001193958567
99999.997002239353606
99999.997002665462787
99999.997003063588636
99999.997004837496206
99999.997007986050448
99999.996999340131879
99999.996955986018293
99999.996903532068245
99999.996895341959316
99999.996997203255887
99999.99700421995658
99999.997000293224119
99999.996998391026864
99999.996999333045096
99999.997000370552996
99999.997000816307263
99999.997000942807063
99999.997000972973183
99999.99700098381436
99999.997000989678781
99999.997000994408154
99999.997001000490854
99999.997001005845959
99999.997001010895474
99999.997001016265131
99999.997001021853066
99999.997001027018996
99999.997001032636035
99999.997001037962036
99999.997001042065676
99999.997001045441721
99999.997001098599867
99999.997001457304577
99999.997001591269509
99999.996997515292605
99999.996995286768652
99999.997005451092264
99999.997007204699912
99999.996998833710677
99999.997005325814825
99999.997004496864974
99999.997000242685317
99999.996999699200387
99999.997001090901904
99999.997002192045329
99999.997002920965315
99999.997004788150662
99999.997007901838515
99999.996999074719497
99999.996955462105689
99999.99690287753765
99999.996894609503215
99999.996997716501937
99999.997003879092517
99999.997000470102648
99999.996998713599169
99999.996999431357835
99999.997000375602511
99999.997000810995814
99999.997000942370505
99999.997000977149582
99999.997000987248612
99999.997000992050744
99999.997000998118892
99999.997001005278435
99999.99700101010967
99999.997001015697606
99999.997001021867618
99999.997001027237275
99999.997001032636035
99999.997001038020244
99999.99700104254589
99999.997001044670469
99999.997001097231987
99999.997001500727492
99999.997001768701011
99999.996997430367628
99999.996994822970009
99999.997005854223971
99999.997007230311283
99999.996998796937987
99999.997005175871891
99999.997004555843887
99999.997000252449652
99999.996999593247892
99999.997000964125618
99999.997002322008484
99999.997004508521059
99999.997007751677302
99999.996999050490558
99999.996955533206346
99999.996902799903182
99999.996894844458438
99999.99699746875558
99999.997004076474695
99999.9970007235097
99999.996998822272872
99999.996999389884877
99999.997000350864255
99999.997000770075829
99999.997000911011128
99999.997000960589503
99999.997000979885343
99999.997000991468667
99999.997001002033358
99999.9970010084362
99999.997001013471163
99999.99700101983035
99999.997001026844373
99999.997001032839762
99999.997001038311282
99999.997001042953343
99999.997001045558136
99999.997001089112018
99999.997001459443709
99999.997001808587811
99999.996997874608496
99999.996994816858205
99999.99700565430976
99999.997007937199669
99999.996999087627046
99999.997005656114197
99999.997004989345442
99999.997000553557882
99999.9970001247857
99999.997001611496671
99999.997004190052394
99999.997007627549465
99999.996998957911273
99999.996955100956257
99999.996902414102806
99999.996897603821708
99999.996997457332327
99999.997004039818421
99999.997000764924451
99999.996998794915271
99999.996999382288777
99999.997000315081095
99999.997000749921426
99999.997000858114916
99999.997000908551854
99999.997000909905182
99999.997000944596948
99999.997000979579752
99999.99700099779875
99999.997001008698135
99999.997001020703465
99999.997001030074898
99999.997001037714654
99999.997001042327611
99999.997001045019715
99999.997001088355319
99999.997001457915758
99999.997001816431293
99999.996997910158825
99999.996994835251826
99999.997005661105504
99999.997007941288757
99999.996999159964616
99999.997005668352358
99999.997005100056413
99999.997000924486201
99999.997000827715965
99999.997003641648917
99999.997007373574888
99999.996998039729078
99999.996952762536239
99999.996909603883978
99999.996898449753644
99999.996998091766727
99999.997004091303097
99999.997000401330297
99999.996998870992684
99999.996999535229406
99999.996999932234758
99999.997000433664653
99999.99700072997075
99999.99700081901392
99999.997000868810574
99999.997000881441636
99999.997000921342988
99999.997000924879103
99999.997000967821805
99999.99700101155031
99999.997001031500986
99999.997001039067982
99999.997001042356715
99999.997001085299416
99999.997001454568817
99999.997001811716473
99999.99699791680905
99999.996994858418475
99999.997005659082788
99999.996998019661987
99999.997004786302568
99999.997001188981812
99999.996999391965801
99999.996999081515241
99999.996999601324205
99999.997000363393454
99999.997000405099243
99999.997000165050849
99999.997000453688088
99999.997000671268324
99999.997000752278836
99999.997000800794922
99999.997000909716007
99999.997000976451091
99999.99700100060727
99999.997001006646315
99999.997001050942345
99999.997001419760636
99999.997001776486286
99999.996997883077711
99999.99699483079894
99999.997005642857403
99999.99699819466332
99999.997004935808945
99999.997001512994757
99999.996999752343982
99999.997000101255253
99999.997000596864382
99999.996999686860363
99999.996999780807528
99999.997000416056835
99999.997000501331058
99999.997000187810045
99999.997000527931959
99999.997000821764232
99999.997000927483896
99999.997000953095267
99999.997000999501324
99999.997001368843485
99999.997001721989363
99999.996997824040591
99999.996994806977455
99999.997005709446967
99999.99699848133605
99999.997005169148906
99999.997001825031475
99999.996999082883121
99999.996999343886273
99999.997000353585463
99999.997000068498892
99999.996999730472453
99999.997000218791072
99999.997000533403479
99999.997000629635295
99999.997000691117137
99999.997001061230549
99999.997001409166842
99999.996997526424821
99999.996994649482076
99999.99700562999351
99999.996998400136363
99999.997004688382731
99999.997001612282475
99999.996999168797629
99999.99699963312014
99999.997000264746021
99999.997000512172235
99999.997000609422685
99999.997000968578504
99999.997001244439161
99999.996997478636331
99999.996995538182091
99999.997006253426662
99999.996998744551092
99999.997005098572117
99999.997002048199647
99999.996999959868845
99999.997000413422938
99999.997000870207557
99999.997001065887162
99999.997001421288587
99999.997001693714992
99999.996998391841771
99999.996996818503249
99999.997006186793442
100000.00144735499634
100000.00145040286588
100000.00144859327702
100000.00144656344492
100000.00144531813567
100000.00144412409281
100000.00144287481089
100000.00144160250784
100000.00144032709068
100000.00143905288132
100000.0014377811458
100000.00143651064718
100000.00143524193845
100000.00143397401553
100000.001432715173
100000.00143154243415
100000.00143036500958
100000.00142792105908
100000.00142684589082
100000.00142957379285
100000.01270639333234
100000.01270556067175
100000.01270088070305
100000.01269375170523
100000.01268840182456
100000.01268347338191
100000.01267844479298
100000.01267335290322
100000.01266825123457
100000.01266315361136
100000.01265806236188
100000.01265297803911
100000.01264790041023
100000.01264283181808
100000.0126377693523
100000.0126327148173
100000.01262769926689
100000.01262274789042
100000.01261726903613
100000.01261112002248
100000.01260928876582
100000.01260591829487
100000.04979200330854
100000.04977023361425
100000.04974998712714
100000.04973056992458
100000.04970820175367
100000.04968525034201
100000.04966440984572
100000.04964375760756
100000.04962293442804
100000.04960205827956
100000.04958119531511
100000.04956035889336
100000.04953955006204
100000.04951877030544
100000.04949802113697
100000.04947730193089
100000.04945661060628
100000.04943594746874
100000.0494153444306
100000.04939488675154
100000.04937400837662
100000.04935144497722
100000.04933362318843
100000.04931515014323
100000.04929332569009
100000.04927470792609
100000.12821479928971
100000.12809009592456
100000.12801815044077
100000.12795314234972
100000.12789233548392
100000.12782863675966
100000.12776707057492
100000.12770650813763
100000.12764576610061
100000.12758491864952
100000.12752410540998
100000.12746336925193
100000.12740271401708
100000.12734213816293
100000.12728164513828
100000.12722123932326
100000.12716091833136
100000.12710067807348
100000.12704051854962
100000.12698045224533
100000.12692052852071
100000.12686058721738
100000.12679952209874
100000.12673921765236
100000.12668312776077
100000.12662259483477
100000.1265673427697
100000.12650512989785
100000.26767167945218
100000.26732071964943
100000.26694321646937
100000.26673143984226
100000.26656214907416
100000.26639858854469
100000.26623530688812
100000.26607389541459
100000.26591272850055
100000.2657514243765
100000.2655902079423
100000.26542919056374
100000.26526839948201
100000.26510782986588
100000.26494747756806
100000.2647873503447
100000.26462745731988
100000.26446779241087
100000.26430834682833
100000.264149122464
100000.26399012454203
100000.26383138583333
100000.26367288964684
100000.26351386842725
100000.2633542988624
100000.26319820611388
100000.2630401361821
100000.26288580089749
100000.26273051279713
100000.26257049695414
100000.41470703968662
100000.41654240536445
100000.41573361422343
100000.41482038452523
100000.41436810418963
100000.41403825915768
100000.4137233219808
100000.41341074813681
100000.4130991868733
100000.41278765244351
100000.41247626984841
100000.41216523852199
100000.41185462183785
100000.41154443085543
100000.41123465404962
100000.41092528482841
100000.41061633694335
100000.41030782231246
100000.4099997330195
100000.40969205608417
100000.40938479115721
100000.40907794331724
100000.40877152998291
100000.40846556783072
100000.40815972739074
100000.4078533501015
100000.40754841682792
100000.40724384428177
100000.40693930907582
100000.40663970296737
100000.40633843243995
100000.40604223174159
100000.54736081862939
100000.5508554897242
100000.54938827570004
100000.54769319316256
100000.54689925060666
100000.54634375842579
100000.54582023926196
100000.5453012460348
100000.54478307570389
100000.54426522605354
100000.54374792435556
100000.54323130345438
100000.54271539644105
100000.54220020442153
100000.54168571199989
100000.54117191162368
100000.5406588211481
100000.5401464538154
100000.539634800778
100000.53912384567957
100000.5386135851586
100000.53810402634554
100000.5375951815804
100000.53708706620091
100000.53657955038943
100000.5360720702738
100000.53556528793706
100000.53505946522637
100000.53455260692863
100000.53405012913572
100000.53355151797587
100000.53306935897854
100000.53257751632191
100000.64325226389337
100000.63989261774987
100000.63714205399447
100000.63611384018441
100000.63484583245008
100000.62837069293892
100000.5994018795609
100000.60652887873584
100000.60359002629411
100000.60070023669687
100000.59957328575547
100000.5988678799331
100000.59822256509506
100000.59758604431408
100000.59695062781975
100000.59631582023576
100000.59568180736096
100000.5950486602087
100000.59441639152647
100000.59378499958257
100000.59315446332039
100000.59252477456175
100000.59189595465432
100000.59126802063838
100000.59064096328802
100000.59001475987316
100000.58938940614462
100000.58876491326373
100000.58814128871018
100000.58751854226284
100000.58689662945108
100000.58627525261545
100000.58565437811194
100000.5850344892533
100000.58441389221116
100000.58379462332232
100000.58318106277147
100000.58260640755179
100000.58193936345924
100000.58031632912753
100000.76842820378079
100000.77952843545063
100000.77402316743974
100000.77015578828286
100000.76879461418139
100000.76709571568063
100000.75734982323775
100000.72171415532648
100000.73286116172676
100000.72786829457618
100000.72377934525139
100000.72232763444481
100000.72142477992747
100000.72060148521268
100000.7197908731905
100000.71898186043836
100000.71817375805404
100000.71736672284896
100000.71656079601962
100000.71575598164054
100000.71495228380081
100000.71414967071905
100000.71334813447902
100000.71254770128871
100000.71174839149171
100000.71095019564382
100000.71015308024653
100000.70935704643489
100000.70856210627244
100000.70776826437213
100000.70697553323407
100000.70618388602452
100000.70539314761118
100000.70460309607734
100000.70381415769225
100000.7030249962263
100000.70223555924895
100000.70145244171727
100000.70072622432781
100000.69981118349824
100000.69763378905191
100000.68855095717299
99999.999999814041075
99999.999999813735485
99999.999999814070179
99999.999999814128387
99999.999999813502654
99999.999999812731403
99999.999999818479409
99999.999999836130883
99999.999999845327693
99999.999999835694325
99999.999999838837539
99999.999999814754119
99999.999999813764589
99999.99999981423025
99999.999999813837348
99999.999999813560862
99999.999999814288458
99999.999999813575414
99999.99999981324072
99999.999999813473551
99999.999999812964234
99999.999999814070179
99999.999999814113835
99999.999999813633622
99999.999999813517206
99999.999999813386239
99999.999999814317562
99999.999999814084731
99999.999999813473551
99999.999999814041075
99999.999999813226168
99999.999999814375769
99999.999999812906026
99999.99999981361907
99999.999999814201146
99999.99999981430301
99999.999999813328031
99999.999999813560862
99999.999999813255272
99999.999999813793693
99999.999999813589966
99999.999999814142939
99999.99999981316796
99999.99999981453584
99999.999999813473551
99999.999999813066097
99999.999999814055627
99999.99999981217843
99999.999999814768671
99999.99999981529254
99999.999999813633622
99999.999999813895556
99999.999999813706381
99999.999999813822797
99999.999999814637704
99999.999999812745955
99999.999999813793693
99999.999999814142939
99999.999999814899638
99999.999999813589966
99999.99999981286237
99999.999999815205229
99999.999999812978785
99999.999999818683136
99999.999999835563358
99999.999999845123966
99999.999999835868948
99999.99999983800808
99999.999999813706381
99999.999999813895556
99999.999999813560862
99999.999999813633622
99999.999999813837348
99999.999999813589966
99999.999999813720933
99999.999999813517206
99999.999999813560862
99999.999999813371687
99999.999999813677277
99999.999999814011971
99999.999999813531758
99999.999999813589966
99999.99999981361907
99999.999999814070179
99999.999999813662726
99999.999999813822797
99999.999999814084731
99999.999999813881004
99999.999999814317562
99999.999999813706381
99999.999999813837348
99999.999999813328031
99999.999999813735485
99999.999999813691829
99999.999999813982868
99999.999999813662726
99999.999999814011971
99999.999999813866452
99999.999999813720933
99999.999999813648174
99999.999999813837348
99999.999999813793693
99999.999999813371687
99999.999999813808245
99999.999999813342583
99999.999999813269824
99999.99999981430301
99999.999999813328031
99999.999999813953764
99999.999999812789611
99999.999999813284376
99999.999999813822797
99999.999999814317562
99999.99999981430301
99999.99999981354631
99999.999999815103365
99999.999999813691829
99999.999999813095201
99999.999999814564944
99999.999999812745955
99999.999999818493961
99999.999999835519702
99999.999999845167622
99999.999999835767085
99999.999999838400981
99999.999999813793693
99999.999999813502654
99999.999999813793693
99999.999999814055627
99999.999999814142939
99999.999999813633622
99999.999999813822797
99999.999999813866452
99999.999999813793693
99999.999999814041075
99999.999999813895556
99999.999999813677277
99999.999999813764589
99999.999999813779141
99999.999999814041075
99999.9999998138519
99999.999999813953764
99999.9999998138519
99999.999999814055627
99999.999999814084731
99999.999999813691829
99999.999999813502654
99999.999999813735485
99999.999999813939212
99999.999999813706381
99999.999999814157491
99999.999999813793693
99999.999999813648174
99999.999999813822797
99999.999999814055627
99999.999999813910108
99999.999999813517206
99999.999999813502654
99999.999999813604518
99999.999999813386239
99999.999999814259354
99999.999999813284376
99999.999999813881004
99999.999999813808245
99999.99999981361907
99999.999999813284376
99999.999999814346666
99999.999999812920578
99999.999999814623152
99999.999999813691829
99999.999999814375769
99999.9999998138519
99999.999999813910108
99999.99999981324072
99999.9999998180283
99999.999999835548806
99999.999999845240382
99999.999999835330527
99999.999999839026714
99999.999999813677277
99999.999999813677277
99999.999999813910108
99999.999999813793693
99999.999999813662726
99999.999999813750037
99999.999999813881004
99999.99999981361907
99999.999999813895556
99999.99999981361907
99999.999999813808245
99999.999999813764589
99999.999999814026523
99999.999999813706381
99999.999999813648174
99999.999999813837348
99999.9999998138519
99999.999999813764589
99999.999999814172043
99999.999999814084731
99999.999999813720933
99999.999999813589966
99999.999999813604518
99999.999999813866452
99999.999999813720933
99999.999999813866452
99999.999999813589966
99999.999999813633622
99999.999999813531758
99999.999999814011971
99999.999999813575414
99999.999999813458999
99999.999999814041075
99999.999999813837348
99999.999999813328031
99999.999999814768671
99999.999999813458999
99999.999999812920578
99999.99999981399742
99999.999999813182512
99999.999999814099283
99999.999999813386239
99999.999999813837348
99999.999999814652256
99999.999999813255272
99999.999999814448529
99999.999999813750037
99999.99999981354631
99999.999999813589966
99999.999999817126081
99999.999999836698407
99999.99999984508031
99999.999999834792106
99999.999999838895747
99999.999999813822797
99999.999999813662726
99999.999999813604518
99999.999999813720933
99999.999999813691829
99999.999999813720933
99999.999999813604518
99999.999999813560862
99999.999999813604518
99999.999999813488103
99999.999999813633622
99999.9999998138519
99999.999999813779141
99999.999999813866452
99999.999999813691829
99999.999999813895556
99999.999999813342583
99999.99999981430301
99999.999999813953764
99999.999999813677277
99999.999999813822797
99999.999999813589966
99999.99999981331348
99999.999999813371687
99999.99999981392466
99999.999999813720933
99999.999999813764589
99999.999999813822797
99999.999999813837348
99999.999999813415343
99999.999999813866452
99999.999999814084731
99999.999999813691829
99999.999999814623152
99999.99999981324072
99999.999999814201146
99999.999999812920578
99999.999999813488103
99999.999999814055627
99999.999999813691829
99999.999999814070179
99999.99999981399742
99999.999999814463081
99999.999999813779141
99999.999999813488103