/*--------------------------------*- C++ -*----------------------------------*\
  =========                 |
  \\      /  F ield         | OpenFOAM: The Open Source CFD Toolbox
   \\    /   O peration     | Website:  https://openfoam.org
    \\  /    A nd           | Version:  12
     \\/     M anipulation  |
\*---------------------------------------------------------------------------*/
FoamFile
{
    format      ascii;
    class       volScalarField;
    location    "1e-05";
    object      pMean;
}
// * * * * * * * * * * * * * * * * * * * * * * * * * * * * * * * * * * * * * //

dimensions      [1 -1 -2 0 0 0 0];

internalField   nonuniform List<scalar> 
106891
(
99999.997001513940631
99999.997002380987396
99999.997002609889023
99999.997001780895516
99999.997001749987248
99999.997002385396627
99999.997003529293579
99999.997004167395062
99999.996998534988961
99999.99698193607037
99999.996948051732033
99999.996999305047211
99999.997000153540284
99999.996999353024876
99999.996999784605578
99999.997000276795006
99999.997000468778424
99999.997000517323613
99999.997000530027435
99999.997000535891857
99999.997000541829038
99999.997000547024072
99999.99700055293215
99999.99700055901485
99999.997000564704649
99999.997000569128431
99999.997000576462597
99999.997000581439352
99999.99700058621238
99999.997000593342818
99999.997000599018065
99999.997000604256755
99999.997000609728275
99999.997000615883735
99999.997000621777261
99999.997000627481611
99999.997000633637072
99999.997000638439204
99999.997000645133085
99999.997000650313566
99999.997000656236196
99999.997000662173377
99999.997000667528482
99999.997000681294594
99999.997000757153728
99999.997000898380065
99999.997000321658561
99999.996998443588382
99999.996998698610696
99999.997000925955945
99999.99700191373995
99999.997002164309379
99999.997001337440452
99999.997001446943614
99999.997002020478249
99999.99700241300161
99999.997002635966055
99999.997002752919798
99999.997002768461243
99999.997002794203581
99999.997002810632694
99999.997002809890546
99999.997002885022084
99999.997003169977688
99999.997004036369617
99999.997004521472263
99999.996998829214135
99999.996982237673365
99999.996947723528137
99999.996999737864826
99999.997000443661818
99999.996999761176994
99999.997000270697754
99999.99700071636471
99999.99700087038218
99999.997000906689209
99999.997000916817342
99999.99700092265266
99999.997000928677153
99999.997000934570679
99999.997000940013095
99999.997000945353648
99999.997000951014343
99999.997000957489945
99999.997000962568563
99999.997000967792701
99999.997000974355615
99999.997000980001758
99999.997000985371415
99999.997000990799279
99999.997000997056603
99999.997001002950128
99999.99700100850896
99999.997001014577108
99999.997001019728486
99999.997001026073121
99999.997001031690161
99999.997001036885194
99999.997001042764168
99999.99700105273223
99999.997001122930669
99999.997001327719772
99999.99700089826365
99999.996998808754142
99999.996998889619135
99999.99700119139743
99999.9970022951602
99999.997002505042474
99999.997001665469725
99999.997001803276362
99999.997002368138055
99999.997002619726118
99999.997002604533918
99999.997002648131456
99999.997002640491701
99999.997002737014554
99999.997002749689273
99999.997002807955141
99999.997002931297175
99999.997003229436814
99999.99700409740035
99999.997004597258638
99999.996998963499209
99999.996982461641892
99999.996947927254951
99999.996999462950043
99999.997000382092665
99999.996999691560632
99999.997000206145458
99999.997000710238353
99999.997000901785214
99999.997000950723304
99999.997000962976017
99999.997000968869543
99999.997000975359697
99999.997000980962184
99999.997000986404601
99999.997000991847017
99999.997000997827854
99999.997001003604964
99999.99700100874179
99999.997001014780835
99999.997001020528842
99999.997001026204089
99999.997001031806576
99999.997001037743757
99999.997001043375349
99999.997001049676328
99999.997001055060537
99999.997001060823095
99999.997001066687517
99999.997001072246348
99999.997001078023459
99999.997001083436771
99999.997001090436243
99999.997001110881683
99999.997001189563889
99999.997001251453185
99999.997000614239369
99999.996998859875021
99999.996998868708033
99999.997000994626433
99999.997002116288058
99999.997002263145987
99999.997001584037207
99999.997001854324481
99999.99700245411077
99999.997002814314328
99999.997002959979
99999.997003011463676
99999.997003038995899
99999.99700305738952
99999.997003075535758
99999.997003113923711
99999.997003355194465
99999.997004203192773
99999.997004709410248
99999.996999108610908
99999.996982640965143
99999.996947875522892
99999.996999598384718
99999.997000409828615
99999.996999843497179
99999.99700039155141
99999.997000841074623
99999.997000999879674
99999.997001039082534
99999.997001049268874
99999.997001055598957
99999.997001061419724
99999.997001067284145
99999.997001072857529
99999.997001078416361
99999.997001084309886
99999.997001089213882
99999.997001095121959
99999.997001101452042
99999.997001106879907
99999.997001112438738
99999.997001118405024
99999.997001124080271
99999.997001130264835
99999.997001135605387
99999.997001141469809
99999.997001147276023
99999.99700115302403
99999.997001158611965
99999.997001164170797
99999.997001176365302
99999.997001249503228
99999.997001419993467
99999.997000918956473
99999.996998923495994
99999.996998882881599
99999.997000946619664
99999.997002091069589
99999.997002348478418
99999.997001511903363
99999.997001706957235
99999.997002381744096
99999.997002821779461
99999.997002991643967
99999.99700304052385
99999.997003056807443
99999.997003067808691
99999.997003078839043
99999.997003091179067
99999.997003124517505
99999.997003363547265
99999.997004214048502
99999.997004740085686
99999.996999166934984
99999.996982352313353
99999.996946943661897
99999.996999735391
99999.997000404415303
99999.996999798007892
99999.997000239149202
99999.997000740928343
99999.997000967821805
99999.997001035721041
99999.99700105311058
99999.997001060110051
99999.997001066731173
99999.997001072319108
99999.997001077703317
99999.997001083174837
99999.997001089534024
99999.997001094627194
99999.997001100549824
99999.997001106326934
99999.997001111885766
99999.997001117706532
99999.997001123425434
99999.997001129144337
99999.997001135197934
99999.997001140756765
99999.997001146315597
99999.997001152063604
99999.997001158102648
99999.997001162933884
99999.997001172450837
99999.997001241397811
99999.997001457260922
99999.997001089373953
99999.996999005801626
99999.996998942864593
99999.997000997725991
99999.997002128569875
99999.997002339077881
99999.997001568917767
99999.997001823794562
99999.997002471107407
99999.997002868971322
99999.997003021708224
99999.997003068012418
99999.997003084034077
99999.997003093434614
99999.997003100725124
99999.997003130440135
99999.997003368000151
99999.99700422094611
99999.997004763485165
99999.996999231007067
99999.99698233291565
99999.996946337181726
99999.996999735405552
99999.997000367104192
99999.996999803624931
99999.997000266608666
99999.997000765346456
99999.997000985138584
99999.99700104619842
99999.997001062016352
99999.997001069321414
99999.997001074967557
99999.997001080584596
99999.997001085794182
99999.997001092226128
99999.997001097159227
99999.997001103416551
99999.997001108902623
99999.997001114155864
99999.997001120602363
99999.99700112627761
99999.997001131880097
99999.997001137846382
99999.997001143608941
99999.997001149051357
99999.997001154930331
99999.997001160794753
99999.99700116670283
99999.997001184136025
99999.997001260140678
99999.997001371360966
99999.997000838513486
99999.996998995673493
99999.99699888912437
99999.997001060226467
99999.997002113304916
99999.997002417236217
99999.997001643612748
99999.997001814306714
99999.997002441232326
99999.997002853560844
99999.997003017531824
99999.997003067939659
99999.997003084834432
99999.997003094104002
99999.997003101030714
99999.997003130512894
99999.997003368014703
99999.997004225675482
99999.997004792065127
99999.996999205817701
99999.996981558520929
99999.996946019964525
99999.996999792245333
99999.997000441508135
99999.996999838302145
99999.997000298564672
99999.997000789517188
99999.997000997129362
99999.997001053314307
99999.997001067749807
99999.99700107499666
99999.997001080089831
99999.997001085721422
99999.997001092298888
99999.997001097130124
99999.997001103023649
99999.997001108844415
99999.997001114315935
99999.997001120238565
99999.997001125942916
99999.997001131661818
99999.997001137599
99999.997001143492525
99999.997001148876734
99999.997001154522877
99999.997001160154468
99999.997001170471776
99999.997001240379177
99999.997001434734557
99999.997001014271518
99999.996998986840481
99999.996998828442884
99999.997001084862859
99999.997002163421712
99999.997002407326363
99999.997001665076823
99999.997001886746148
99999.997002499934752
99999.997002883785171
99999.997003032549401
99999.997003077907721
99999.997003092968953
99999.997003100783331
99999.997003130323719
99999.997003368363949
99999.997004233126063
99999.997004813689273
99999.996999005888938
99999.996980519776116
99999.996946627288708
99999.996999685099581
99999.99700046495127
99999.996999899783987
99999.997000433140784
99999.997000872244826
99999.997001026888029
99999.997001063471544
99999.997001074647414
99999.997001079973415
99999.997001085241209
99999.99700109254627
99999.997001097261091
99999.997001102834474
99999.99700110834965
99999.997001114665181
99999.997001119889319
99999.997001125506358
99999.997001131618163
99999.997001137278858
99999.997001143361558
99999.997001148571144
99999.99700115370797
99999.9970011630503
99999.997001229334273
99999.997001455092686
99999.997001140582142
99999.996999057737412
99999.996998875154532
99999.997001066614757
99999.997002155243536
99999.997002381147468
99999.997001644122065
99999.997001799027203
99999.997002404925297
99999.997002831616555
99999.997003013297217
99999.997003072639927
99999.997003091746592
99999.997003100404982
99999.997003130119992
99999.997003368509468
99999.997004236473003
99999.997004831137019
99999.996999027527636
99999.996980435724254
99999.996946664774441
99999.996999684502953
99999.997000505638425
99999.9969999922032
99999.997000504125026
99999.997000903022126
99999.99700103829673
99999.997001070616534
99999.997001079973415
99999.997001085197553
99999.99700109216792
99999.997001097217435
99999.99700110295089
99999.99700110910635
99999.997001114010345
99999.997001119860215
99999.997001126132091
99999.99700113167637
99999.997001137002371
99999.997001143594389
99999.997001148498384
99999.99700115401356
99999.997001162773813
99999.997001225114218
99999.997001430790988
99999.997001130352146
99999.996999150898773
99999.996998816830455
99999.997001080220798
99999.997002177682589
99999.997002362331841
99999.997001640673261
99999.997001810159418
99999.997002413889277
99999.997002838354092
99999.997003020427655
99999.997003079857677
99999.997003098309506
99999.997003129625227
99999.997003368422156
99999.997004238917725
99999.997004846358323
99999.996999073933694
99999.996980511627044
99999.996946766070323
99999.996999607101316
99999.997000385046704
99999.996999737122678
99999.997000330491574
99999.99700083474454
99999.997001016628928
99999.997001062336494
99999.997001073541469
99999.997001079958864
99999.997001085765078
99999.997001092007849
99999.997001097042812
99999.997001103009097
99999.997001109164557
99999.997001113937586
99999.997001120267669
99999.997001126335817
99999.997001131603611
99999.997001137089683
99999.997001143565285
99999.997001148076379
99999.997001156691113
99999.997001216062927
99999.997001430077944
99999.99700117505563
99999.996999216309632
99999.996998870134121
99999.997001087176614
99999.997002200048883
99999.99700240472157
99999.997001676703803
99999.997001810465008
99999.997002398697077
99999.997002830306883
99999.997003020442207
99999.997003082971787
99999.997003125346964
99999.997003366166609
99999.997004234959604
99999.99700483266497
99999.996999035822228
99999.996980440657353
99999.996946663217386
99999.996999756476725
99999.997000319664949
99999.996999667782802
99999.997000146977371
99999.997000705319806
99999.997000966905034
99999.997001049137907
99999.997001071285922
99999.997001079318579
99999.997001086172531
99999.997001092793653
99999.997001096824533
99999.99700110325648
99999.997001109528355
99999.997001114476006
99999.997001120646019
99999.997001126394025
99999.997001131938305
99999.997001137802727
99999.997001143652597
99999.997001149269636
99999.997001154377358
99999.997001163879759
99999.99700122998911
99999.997001433977857
99999.997001086507225
99999.99699904199224
99999.9969987020595
99999.997001111885766
99999.997002189862542
99999.99700239719823
99999.997001687312149
99999.997001789743081
99999.997002370844712
99999.997002818330657
99999.997003019132535
99999.997003108073841
99999.997003359647351
99999.997004223710974
99999.997004786127945
99999.996998895570869
99999.996980166455614
99999.996946252897033
99999.996999759154278
99999.997000365867279
99999.996999801485799
99999.997000210700207
99999.99700071910047
99999.997000970222871
99999.997001052819542
99999.99700107605895
99999.997001085430384
99999.997001092517166
99999.997001096911845
99999.997001103241928
99999.997001110154088
99999.997001114330487
99999.997001120689674
99999.997001126641408
99999.997001132505829
99999.997001138151973
99999.997001143972739
99999.997001149575226
99999.997001154886675
99999.997001163632376
99999.997001234252821
99999.997001474854187
99999.99700116335589
99999.99699899549887
99999.99699875008082
99999.997001135532628
99999.997002175558009
99999.997002392570721
99999.997001680676476
99999.99700175250473
99999.997002320116735
99999.997002763469936
99999.997002985139261
99999.997003281998332
99999.997004161079531
99999.997004746372113
99999.996998907634406
99999.996980229843757
99999.996946365092299
99999.996999838869669
99999.997000457369722
99999.996999835697352
99999.99700021200988
99999.997000715200556
99999.997000966512132
99999.997001046023797
99999.997001074953005
99999.997001087816898
99999.99700109528203
99999.997001102048671
99999.997001110052224
99999.997001114519662
99999.997001120515051
99999.9970011265832
99999.997001132724108
99999.997001138297492
99999.997001144191017
99999.997001149808057
99999.997001155352336
99999.997001163152163
99999.997001226773136
99999.997001462907065
99999.997001232753973
99999.996999148905161
99999.996998712376808
99999.997001423645997
99999.997002451054868
99999.997002709162189
99999.99700190515432
99999.997001946074306
99999.997002452655579
99999.997002833129955
99999.997003212134587
99999.997004118180485
99999.997004710661713
99999.996998839327716
99999.996980026975507
99999.996946390354424
99999.996999849172425
99999.997000462419237
99999.996999824856175
99999.997000175499124
99999.997000693459995
99999.99700095730077
99999.997001049909159
99999.99700107058743
99999.997001074050786
99999.99700108221441
99999.997001099109184
99999.997001109542907
99999.997001117735635
99999.997001124866074
99999.997001131923753
99999.997001137962798
99999.997001144685782
99999.997001149895368
99999.997001155352336
99999.997001163341338
99999.997001226642169
99999.997001463620109
99999.997001239695237
99999.996999163151486
99999.996998719245312
99999.997001255847863
99999.997002229065401
99999.997002488671569
99999.997001692885533
99999.997001714451471
99999.997002193224034
99999.997002737829462
99999.99700371173094
99999.997004224933335
99999.996997911846847
99999.996979226707481
99999.996948037776747
99999.996999944502022
99999.997000723349629
99999.996999759387108
99999.99700017007126
99999.997000537827262
99999.997000803152332
99999.997000950359507
99999.997001020732569
99999.997001055307919
99999.997001084368094
99999.997001091614948
99999.997001094379812
99999.997001104668016
99999.997001123323571
99999.997001135401661
99999.997001144234673
99999.997001149517018
99999.997001154872123
99999.997001162992092
99999.997001226205612
99999.997001463139895
99999.997001240277314
99999.996999168899492
99999.996998723698198
99999.996999800379854
99999.997000715244212
99999.997000050308998
99999.997000372895855
99999.99700063597993
99999.997000575182028
99999.997000711184228
99999.997000712988665
99999.997000841787667
99999.997000964882318
99999.997001025389181
99999.997001050738618
99999.997001085517695
99999.997001117095351
99999.997001133902813
99999.997001141367946
99999.997001147334231
99999.997001155512407
99999.997001218827791
99999.997001455019927
99999.9970012329577
99999.996999161870917
99999.996998719972908
99999.996999750015675
99999.997000658448087
99999.996999932249309
99999.997000270639546
99999.997000666131498
99999.997000802948605
99999.997000764327822
99999.997000594856218
99999.997000735456822
99999.997000755960471
99999.997000898889382
99999.997001042152988
99999.997001105628442
99999.997001125768293
99999.997001134033781
99999.997001142415684
99999.997001205512788
99999.997001441530301
99999.997001217750949
99999.99699914973462
99999.996998729897314
99999.996999812385184
99999.997000752598979
99999.997000026778551
99999.997000224277144
99999.997000313931494
99999.997000511881197
99999.99700052983826
99999.997000738876523
99999.99700091125851
99999.997000974588445
99999.997000993884285
99999.997001003968762
99999.997001067065867
99999.997001302544959
99999.997001078372705
99999.996999034352484
99999.996998667600565
99999.996999996263185
99999.997000969626242
99999.997000125047634
99999.997000344417756
99999.997000713949092
99999.997000872899662
99999.997000917661353
99999.997000932446099
99999.9970009947574
99999.997001216033823
99999.997000974675757
99999.996999086753931
99999.996999020047951
99999.996999923299882
99999.997000768402359
99999.996999920229428
99999.997000108574866
99999.997000400791876
99999.997000515038962
99999.997000547213247
99999.99700060847681
99999.997000818722881
99999.997000636882149
99999.996999013092136
99999.996999006354599
99999.997520949240425
99999.997521444616723
99999.997520780729246
99999.997520637771231
99999.997520577860996
99999.997520474353223
99999.997520349963452
99999.997520221746527
99999.997520093078492
99999.997519964410458
99999.997519836368156
99999.99751970822399
99999.997519579992513
99999.997519452939741
99999.99751932399522
99999.997519212032785
99999.997519162512617
99999.997518991920515
99999.997518257296178
99999.997518277799827
99999.998999699018896
99999.998999867792008
99999.998998456081608
99999.998997747257818
99999.998997315415181
99999.998996813970734
99999.998996261783759
99999.998995695277699
99999.998995127753005
99999.998994560257415
99999.998993994493503
99999.99899342826393
99999.998992863111198
99999.998992298875237
99999.998991736851167
99999.998991173109971
99999.99899061609176
99999.99899008317152
99999.998989522631746
99999.998988574618124
99999.998987627579481
99999.998987612576457
100000.0049463526957
100000.00494370968954
100000.00494019182224
100000.00493764245766
100000.00493463016755
100000.00493206507235
100000.00492955319351
100000.00492691660475
100000.00492422489333
100000.00492152239894
100000.00491882223287
100000.00491612477344
100000.00491343141766
100000.00491074168531
100000.00490805640584
100000.00490537408041
100000.00490269655711
100000.00490002029983
100000.00489735389419
100000.00489471935725
100000.004892102952
100000.00488904601661
100000.00488564664556
100000.00488379292074
100000.00488085509278
100000.00487862483715
100000.01932591255172
100000.01931049702398
100000.01929961204587
100000.01929095212836
100000.01928234566003
100000.01927370307385
100000.01926530840865
100000.01925680243585
100000.01924819234409
100000.01923955834354
100000.01923092931975
100000.01922231225763
100000.01921370640048
100000.01920511209755
100000.01919652924698
100000.0191879595659
100000.01917940190469
100000.01917085598689
100000.01916232022631
100000.01915379923594
100000.01914529928763
100000.01913682458689
100000.01912816743425
100000.01911906109308
100000.01911045798624
100000.01910204636806
100000.01909341585997
100000.01908513660601
100000.05649992160033
100000.05643276267801
100000.05637520081655
100000.05634101945907
100000.0563122034655
100000.05628354017972
100000.0562551683106
100000.05622686519928
100000.05619840932195
100000.05616990326962
100000.0561414158874
100000.05611296475399
100000.05608455494803
100000.05605618323898
100000.05602784961229
100000.0559995558142
100000.05597130340175
100000.05594309153093
100000.05591491790256
100000.05588678250206
100000.05585868799244
100000.0558306366147
100000.05580264134915
100000.05577460539644
100000.05574617683305
100000.05571787507506
100000.05568991335167
100000.05566129861108
100000.05563416653604
100000.05560646283266
100000.10929385102645
100000.10965233188472
100000.1094508729002
100000.10929151896562
100000.10921112455253
100000.10914568824228
100000.10908162349369
100000.10901782866858
100000.1089539998793
100000.10889012107509
100000.1088262845733
100000.10876252583694
100000.10869885369902
100000.10863527125912
100000.10857177276921
100000.1085083566868
100000.10844502771215
100000.10838178936683
100000.10831863956992
100000.10825557308272
100000.1081925907929
100000.10812969553808
100000.10806688760931
100000.10800417524297
100000.10794152306335
100000.10787873444497
100000.10781587958627
100000.10775325921713
100000.10769021009037
100000.10762784065446
100000.10756617512379
100000.10750503624149
100000.20531433977885
100000.20609741641965
100000.20564865414053
100000.20529590586375
100000.20511697218171
100000.20496964533231
100000.20482547512802
100000.20468178598094
100000.20453819406976
100000.20439471265126
100000.2042514095956
100000.20410830131732
100000.20396539295325
100000.20382268731191
100000.2036801752256
100000.2035378535511
100000.20339573106321
100000.20325381231669
100000.2031120940228
100000.20297056781419
100000.20282923524792
100000.20268809945264
100000.20254716079216
100000.20240642597491
100000.20226588164223
100000.20212541498768
100000.20198496207013
100000.2018447805458
100000.20170431891165
100000.2015640407335
100000.201424366227
100000.20128820561513
100000.20115702715702
100000.2794373632787
100000.27823330502724
100000.2775726388063
100000.27731119557575
100000.27712567796698
100000.27517450478626
100000.265447248501
100000.26750652209739
100000.26636419430724
100000.26566679676762
100000.26538774087385
100000.26517213937768
100000.26496341242455
100000.26475571718765
100000.26454825386463
100000.26434102280473
100000.26413407128712
100000.26392739890434
100000.26372101147717
100000.26351491318201
100000.26330908582895
100000.26310352608562
100000.26289824872219
100000.26269326357578
100000.26248856321035
100000.2622841323755
100000.26207997540769
100000.26187609715271
100000.26167249775608
100000.26146918623999
100000.26126614895475
100000.26106333600183
100000.26086069129815
100000.26065832372115
100000.2604560059408
100000.26025352775468
100000.26005130856356
100000.25985589767515
100000.25966267928015
100000.25940340677334
100000.44422401257907
100000.44775841737282
100000.44552609683888
100000.44441163662123
100000.44394762843149
100000.44361461557855
100000.44018116418738
100000.42232214732212
100000.42595883969625
100000.42380518406571
100000.42263262048073
100000.42215302353725
100000.42176190380997
100000.42138049167988
100000.42100082343677
100000.42062167030235
100000.420243002387
100000.41986486646056
100000.41948725067778
100000.41911016292579
100000.41873361145554
100000.41835756575165
100000.41798202414066
100000.41760700586019
100000.41723252703378
100000.41685857578705
100000.41648512698885
100000.41611219200422
100000.41573977368535
100000.41536787325458
100000.41499650443438
100000.41462564693938
100000.41425526834792
100000.41388533028658
100000.41351589249098
100000.41314683557721
100000.41277771604655
100000.41240875975927
100000.41205018512846
100000.41168774587277
100000.41124875919195
100000.40784169631661
99999.999999905267032
99999.999999905208824
99999.999999905237928
99999.999999905354343
99999.999999905165168
99999.999999904990545
99999.999999905121513
99999.999999908221071
99999.999999914929504
99999.999999922278221
99999.999999929088517
99999.999999905339791
99999.999999905150617
99999.999999905354343
99999.999999905237928
99999.999999905165168
99999.99999990532524
99999.999999905034201
99999.999999905136065
99999.999999905092409
99999.999999905136065
99999.999999905077857
99999.999999905281584
99999.999999905165168
99999.999999904975994
99999.999999904975994
99999.999999905005097
99999.999999905077857
99999.999999904917786
99999.99999990525248
99999.999999905427103
99999.99999990525248
99999.999999905208824
99999.999999905092409
99999.999999905223376
99999.999999905150617
99999.999999905121513
99999.999999905048753
99999.999999905092409
99999.999999904990545
99999.999999905048753
99999.999999905121513
99999.999999905121513
99999.999999905150617
99999.99999990517972
99999.999999905092409
99999.999999905106961
99999.999999905005097
99999.999999905048753
99999.999999905121513
99999.999999905150617
99999.999999905048753
99999.999999905208824
99999.99999990517972
99999.999999905267032
99999.99999990525248
99999.999999905136065
99999.999999905528966
99999.999999905194272
99999.999999905165168
99999.999999905310688
99999.999999905165168
99999.999999904975994
99999.999999905354343
99999.999999908148311
99999.9999999149004
99999.999999922190909
99999.999999928972102
99999.999999905077857
99999.999999905077857
99999.999999905092409
99999.999999905092409
99999.999999905208824
99999.999999905165168
99999.99999990517972
99999.999999905092409
99999.999999905077857
99999.999999905034201
99999.999999905005097
99999.999999905106961
99999.999999905092409
99999.999999905077857
99999.999999905150617
99999.999999905267032
99999.999999905150617
99999.999999905150617
99999.999999905237928
99999.99999990517972
99999.999999905281584
99999.999999905194272
99999.999999905106961
99999.999999905121513
99999.999999905106961
99999.999999905077857
99999.999999905092409
99999.999999905034201
99999.999999905077857
99999.999999905121513
99999.999999905048753
99999.999999905019649
99999.999999905092409
99999.999999905165168
99999.999999905208824
99999.999999905106961
99999.999999904932338
99999.999999905063305
99999.999999904990545
99999.999999904975994
99999.999999904859578
99999.999999905063305
99999.99999990525248
99999.999999905150617
99999.999999905397999
99999.999999905281584
99999.99999990525248
99999.999999905281584
99999.999999905223376
99999.999999905223376
99999.999999905368895
99999.999999905048753
99999.999999905267032
99999.999999908191967
99999.999999914944055
99999.999999922161805
99999.999999928942998
99999.999999904932338
99999.999999904990545
99999.999999905034201
99999.999999905136065
99999.999999905281584
99999.999999905237928
99999.999999905106961
99999.999999905063305
99999.999999905034201
99999.999999905121513
99999.999999905077857
99999.999999905136065
99999.99999990517972
99999.999999905150617
99999.999999905223376
99999.999999905310688
99999.999999905237928
99999.999999905194272
99999.999999905281584
99999.999999905339791
99999.999999905194272
99999.999999905034201
99999.999999905063305
99999.999999905150617
99999.999999905208824
99999.999999905194272
99999.999999905165168
99999.999999905121513
99999.999999905106961
99999.999999905194272
99999.999999905194272
99999.999999905165168
99999.999999905063305
99999.999999905034201
99999.999999904961442
99999.999999905019649
99999.99999990494689
99999.999999904990545
99999.999999905106961
99999.999999905136065
99999.999999904975994
99999.999999905194272
99999.999999905208824
99999.999999905194272
99999.999999905194272
99999.999999905470759
99999.99999990532524
99999.999999905368895
99999.999999905136065
99999.999999905223376
99999.999999908162863
99999.999999914798536
99999.999999922030838
99999.999999928913894
99999.999999905034201
99999.999999905121513
99999.999999905034201
99999.999999905106961
99999.999999905150617
99999.99999990517972
99999.99999990517972
99999.999999905150617
99999.999999905150617
99999.999999905136065
99999.999999905019649
99999.999999905136065
99999.999999905165168
99999.999999905121513
99999.99999990517972
99999.999999905237928
99999.999999905281584
99999.999999905237928
99999.999999905237928
99999.999999905223376
99999.99999990517972
99999.999999905165168
99999.999999904990545
99999.999999905005097
99999.999999905063305
99999.99999990517972
99999.999999905223376
99999.999999905048753
99999.99999990494689
99999.999999905048753
99999.999999905005097
99999.999999905063305
99999.999999905034201
99999.999999905106961
99999.999999905005097
99999.999999905092409
99999.999999904975994
99999.999999904990545
99999.999999904990545
99999.999999905296136
99999.999999904990545
99999.99999990517972
99999.999999905150617
99999.999999905194272
99999.999999905194272
99999.999999905296136
99999.999999905427103
99999.999999905296136
99999.999999905005097
99999.999999905310688
99999.999999908279278
99999.9999999149004
99999.999999922030838
99999.999999929015758
99999.999999905034201
99999.999999905077857
99999.999999905077857
99999.999999904990545
99999.999999905077857
99999.999999905106961
99999.999999905121513
99999.999999905063305
99999.999999904990545
99999.999999904975994
99999.999999904990545
99999.999999904990545
99999.999999905136065
99999.999999905150617
99999.99999990517972
99999.999999905121513
99999.999999905136065
99999.999999905150617
99999.999999905048753
99999.999999905106961
99999.999999905005097
99999.999999904990545
99999.999999904975994
99999.999999904961442
99999.999999905063305
99999.999999905136065
99999.999999905092409
99999.999999905077857
99999.99999990517972
99999.999999905136065
99999.999999905106961
99999.999999905194272
99999.999999905092409
99999.999999905267032
99999.999999905106961
99999.999999905136065
99999.999999905223376
99999.999999905194272
99999.999999905150617
99999.999999905106961
99999.999999905136065
99999.999999905267032
99999.999999905310688
99999.999999905237928
99999.999999905223376