/*--------------------------------*- C++ -*----------------------------------*\
  =========                 |
  \\      /  F ield         | OpenFOAM: The Open Source CFD Toolbox
   \\    /   O peration     | Website:  https://openfoam.org
    \\  /    A nd           | Version:  12
     \\/     M anipulation  |
\*---------------------------------------------------------------------------*/
FoamFile
{
    format      ascii;
    class       volScalarField;
    location    "1e-05";
    object      rho;
}
// * * * * * * * * * * * * * * * * * * * * * * * * * * * * * * * * * * * * * //

dimensions      [1 -3 0 0 0 0 0];

internalField   nonuniform List<scalar> 
106891
(
1.1586229940439107811
1.1586229939485059859
1.1586229939672312295
1.1586229939628951424
1.1586229939300995984
1.1586229939388754673
1.1586229939701593317
1.1586229938926444483
1.158622993556377212
1.1586229932073095483
1.1586229928758968732
1.1586229939645436016
1.1586229939873675665
1.158622993942652446
1.1586229939212175921
1.158622993929147249
1.1586229939363019703
1.1586229939387848731
1.1586229939393062338
1.1586229939393788424
1.1586229939393715149
1.1586229939393664079
1.1586229939393635213
1.1586229939393650756
1.1586229939393513089
1.1586229939393495325
1.1586229939393435373
1.1586229939393333233
1.1586229939393306587
1.158622993939326884
1.1586229939393259958
1.1586229939393160038
1.1586229939393106747
1.1586229939393049015
1.1586229939393026811
1.1586229939392991284
1.1586229939392911348
1.1586229939392858057
1.1586229939392813648
1.1586229939392727051
1.1586229939392711508
1.158622993939257162
1.158622993939267376
1.158622993939959045
1.1586229939428163149
1.158622993939157686
1.1586229939004395462
1.158622993918713151
1.1586229939127767885
1.1586229940387329229
1.1586229939397705291
1.1586229939663275079
1.1586229939564500757
1.1586229939186005744
1.1586229939157939306
1.158622993926747835
1.1586229939362200358
1.1586229939346694984
1.1586229939387748811
1.1586229939366567976
1.1586229939384502519
1.1586229939363186237
1.1586229939372194586
1.158622993953051683
1.1586229939770842368
1.1586229938940053596
1.1586229935588447937
1.1586229932052400926
1.1586229928230606934
1.158622993969050885
1.1586229939885956952
1.1586229939387184817
1.1586229939226218022
1.1586229939318715143
1.1586229939380656706
1.1586229939399070865
1.15862299394025281
1.158622993940293
1.1586229939402954425
1.158622993940287671
1.1586229939402836742
1.1586229939402747924
1.1586229939402725719
1.1586229939402661326
1.158622993940258139
1.1586229939402552525
1.1586229939402541422
1.1586229939402474809
1.1586229939402377109
1.1586229939402326039
1.1586229939402283851
1.1586229939402270528
1.1586229939402235001
1.1586229939402108435
1.158622993940208401
1.1586229939402064026
1.1586229939401948563
1.158622993940183532
1.1586229939401673228
1.1586229939406431644
1.1586229939438008607
1.1586229939434269376
1.1586229939037717696
1.1586229939093706243
1.1586229939202516981
1.1586229940380294856
1.1586229939404182332
1.1586229939687744395
1.158622993956680336
1.1586229939185310744
1.158622993914402155
1.1586229939200554107
1.1586229939292040925
1.1586229939345911166
1.1586229939337686634
1.1586229939355416896
1.1586229939362622243
1.1586229939332666206
1.1586229939364682817
1.1586229939536762945
1.1586229939782219933
1.1586229938959955454
1.1586229935627507803
1.1586229932094411765
1.1586229928162661285
1.1586229939627865626
1.1586229939856846904
1.1586229939396526234
1.1586229939211807327
1.1586229939305168202
1.1586229939378309695
1.1586229939403220879
1.1586229939408478895
1.1586229939409189438
1.1586229939409233847
1.1586229939409189438
1.1586229939409145029
1.1586229939409067313
1.158622993940905177
1.1586229939408962952
1.1586229939408927425
1.1586229939408860812
1.1586229939408829726
1.1586229939408783096
1.1586229939408712042
1.1586229939408660972
1.1586229939408643208
1.158622993940860324
1.1586229939408549949
1.1586229939408527745
1.15862299394084034
1.1586229939408367873
1.1586229939408243528
1.1586229939408152489
1.1586229939409089518
1.1586229939418484225
1.1586229939439103287
1.1586229939371943676
1.1586229939030794345
1.158622993915860766
1.158622993910763288
1.1586229940318113485
1.1586229939432930447
1.1586229939650647403
1.1586229939481449414
1.1586229939154144564
1.1586229939171774905
1.1586229939290513258
1.1586229939361314401
1.1586229939384897758
1.1586229939392562738
1.1586229939393708488
1.1586229939394969701
1.1586229939422778568
1.1586229939574792525
1.1586229939809207234
1.1586229938987999688
1.1586229935663454604
1.1586229932106668628
1.1586229927995321809
1.1586229939683354573
1.1586229939865264615
1.1586229939381331722
1.1586229939242467246
1.158622993933851042
1.1586229939401559985
1.1586229939421286428
1.1586229939425158886
1.1586229939425649604
1.1586229939425667368
1.15862299394256274
1.1586229939425571889
1.1586229939425516378
1.1586229939425436442
1.1586229939425354285
1.1586229939425318758
1.1586229939425309876
1.1586229939425254365
1.1586229939425169988
1.158622993942513002
1.1586229939425103375
1.1586229939425056745
1.1586229939425005675
1.1586229939424939062
1.158622993942487911
1.158622993942483248
1.1586229939424703694
1.1586229939424728119
1.1586229939430561231
1.1586229939460517269
1.1586229939441423653
1.158622993905551013
1.1586229939155114899
1.1586229939126053701
1.1586229940358043766
1.1586229939376950782
1.1586229939687535673
1.1586229939555796609
1.1586229939147216772
1.1586229939135974654
1.1586229939271104339
1.158622993935752632
1.158622993938998702
1.1586229939397769684
1.1586229939400063405
1.1586229939399517175
1.1586229939400696232
1.1586229939427299396
1.1586229939578331916
1.1586229939814887135
1.1586229939004220046
1.1586229935650111944
1.1586229931806251159
1.158622992867781587
1.1586229939649237419
1.1586229939852754622
1.1586229939407253209
1.1586229939241414755
1.158622993930934264
1.1586229939385939147
1.1586229939417633794
1.1586229939425782831
1.1586229939427306057
1.1586229939427474811
1.1586229939427412639
1.1586229939427352686
1.1586229939427281632
1.1586229939427266089
1.1586229939427179492
1.1586229939427168389
1.1586229939427097335
1.1586229939427010738
1.1586229939426999636
1.1586229939426946345
1.1586229939426888613
1.158622993942687085
1.1586229939426777591
1.1586229939426706537
1.1586229939426653246
1.158622993942652446
1.1586229939426297975
1.1586229939430678915
1.1586229939462526772
1.15862299394682422
1.1586229939085757046
1.1586229939098640074
1.158622993920913169
1.1586229940352663625
1.1586229939400334299
1.1586229939682526346
1.1586229939516508036
1.1586229939146195367
1.1586229939160421765
1.1586229939291137203
1.1586229939370045194
1.1586229939397547639
1.1586229939404149025
1.1586229939404910638
1.158622993940536805
1.1586229939430379154
1.1586229939580607873
1.1586229939819130408
1.1586229939016934321
1.1586229935663436841
1.1586229931686959915
1.1586229928605524808
1.158622993967945769
1.1586229939851588888
1.1586229939398871025
1.1586229939244232501
1.1586229939315308979
1.1586229939390519927
1.1586229939420273904
1.1586229939427326041
1.1586229939428502878
1.1586229939428573932
1.1586229939428531743
1.1586229939428478453
1.158622993942841628
1.1586229939428349667
1.1586229939428309699
1.1586229939428207558
1.1586229939428187574
1.1586229939428134283
1.1586229939428100977
1.1586229939428054347
1.1586229939428029923
1.1586229939427938884
1.1586229939427912239
1.1586229939427823421
1.158622993942771684
1.1586229939428336344
1.1586229939436203384
1.158622993946032409
1.1586229939418342116
1.1586229939071601702
1.1586229939140890721
1.1586229939137229206
1.1586229940378556247
1.1586229939390726429
1.1586229939652796794
1.1586229939553647217
1.1586229939172083547
1.158622993915741306
1.1586229939284147239
1.1586229939366861075
1.1586229939396968103
1.1586229939404479872
1.1586229939405332523
1.1586229939405621181
1.1586229939430512381
1.1586229939581083048
1.1586229939823757817
1.1586229939029017988
1.1586229935559653192
1.1586229931303482221
1.1586229929938163252
1.1586229939663235111
1.1586229939871541816
1.158622993940780832
1.1586229939247774112
1.1586229939321033289
1.1586229939393946076
1.1586229939421277546
1.158622993942762136
1.1586229939428525082
1.1586229939428587254
1.1586229939428478453
1.158622993942846513
1.1586229939428422941
1.158622993942831414
1.158622993942826751
1.158622993942826751
1.1586229939428192015
1.1586229939428154267
1.1586229939428127622
1.1586229939428100977
1.1586229939427976632
1.1586229939427954427
1.1586229939427834523
1.1586229939427625801
1.1586229939432584057
1.158622993946336166
1.1586229939459140592
1.1586229939082723916
1.1586229939124279564
1.1586229939140126888
1.1586229940367178681
1.1586229939409891099
1.1586229939663912347
1.1586229939527001864
1.1586229939168306569
1.1586229939172918435
1.1586229939295726865
1.1586229939371581743
1.1586229939398258182
1.1586229939404282252
1.1586229939405534584
1.1586229939430543467
1.1586229939581862425
1.1586229939829959523
1.1586229939021914781
1.1586229935349152687
1.1586229931179388153
1.1586229930695279844
1.15862299396745283
1.1586229939892056517
1.1586229939393009047
1.1586229939254406585
1.158622993934558254
1.1586229939405994216
1.158622993942468371
1.1586229939428152047
1.1586229939428511759
1.1586229939428556168
1.1586229939428591695
1.1586229939428456248
1.1586229939428407398
1.1586229939428334124
1.1586229939428238644
1.1586229939428251967
1.1586229939428163149
1.1586229939428136504
1.1586229939428080993
1.1586229939428072111
1.1586229939427878932
1.1586229939427628022
1.1586229939431578195
1.1586229939463370542
1.1586229939477394879
1.1586229939107206555
1.1586229939082037799
1.1586229939201000416
1.1586229940367160918
1.1586229939399383948
1.1586229939651140342
1.1586229939544629985
1.1586229939182810522
1.1586229939152685731
1.1586229939272529865
1.1586229939359755647
1.1586229939394221411
1.1586229939403238642
1.1586229939405305878
1.1586229939430512381
1.1586229939582162185
1.1586229939832666247
1.1586229939029013547
1.1586229935335101704
1.158622993113506805
1.1586229930846638769
1.1586229939688008628
1.1586229939872472183
1.1586229939391090582
1.1586229939269374611
1.1586229939356191831
1.1586229939409506962
1.1586229939425392033
1.1586229939428256408
1.1586229939428538405
1.1586229939428551727
1.158622993942851398
1.1586229939428509539
1.1586229939428434044
1.1586229939428280833
1.158622993942831636
1.1586229939428251967
1.1586229939428189795
1.1586229939428107638
1.1586229939428134283
1.1586229939427927782
1.1586229939427703517
1.1586229939431476055
1.1586229939460415128
1.1586229939471615058
1.1586229939127559163
1.1586229939099659259
1.1586229939136534206
1.1586229940349277445
1.1586229939417171941
1.1586229939654957288
1.1586229939535781508
1.158622993918230426
1.1586229939154508717
1.1586229939272592038
1.1586229939359116159
1.1586229939393306587
1.1586229939403163147
1.1586229939430134905
1.1586229939582277648
1.1586229939834711278
1.158622993903674292
1.1586229935347569509
1.1586229931140070715
1.1586229930864804238
1.1586229939647920695
1.1586229939897221275
1.1586229939379193432
1.1586229939220760166
1.1586229939327650218
1.1586229939400023436
1.1586229939423253743
1.1586229939427936664
1.1586229939428591695
1.1586229939428627222
1.1586229939428533964
1.1586229939428518421
1.1586229939428487334
1.158622993942841628
1.1586229939428338565
1.158622993942831858
1.1586229939428280833
1.1586229939428196456
1.1586229939428149827
1.1586229939428098756
1.1586229939427745705
1.1586229939431080815
1.1586229939459549154
1.1586229939476633266
1.158622993914183219
1.1586229939108021458
1.1586229939159315983
1.1586229940354260126
1.1586229939402434841
1.1586229939652670229
1.1586229939549539392
1.1586229939194225835
1.1586229939152203894
1.1586229939266090572
1.1586229939354373286
1.1586229939391312627
1.1586229939426926361
1.1586229939580980908
1.1586229939832302094
1.1586229939030086022
1.158622993533602763
1.1586229931126332815
1.1586229930849620828
1.1586229939634384856
1.1586229939866858896
1.1586229939398253741
1.1586229939217618234
1.158622993929077305
1.1586229939377115095
1.1586229939415095824
1.1586229939425769508
1.158622993942796775
1.1586229939428429603
1.1586229939428418501
1.158622993942831858
1.1586229939428340785
1.1586229939428289715
1.1586229939428220881
1.1586229939428174252
1.1586229939428127622
1.158622993942806767
1.1586229939428034363
1.1586229939427989954
1.1586229939427830082
1.1586229939427625801
1.1586229939431864633
1.1586229939461902827
1.1586229939468726258
1.1586229939108749765
1.158622993908348775
1.1586229939131134081
1.1586229940343084621
1.1586229939413434931
1.1586229939644490106
1.1586229939562977531
1.1586229939207095541
1.1586229939146501788
1.1586229939256593724
1.1586229939349579343
1.1586229939413983381
1.1586229939576422332
1.1586229939824757018
1.158622993900717546
1.1586229935291982862
1.1586229931071883037
1.1586229930787788067
1.158622993967233894
1.1586229939838004199
1.1586229939410868095
1.1586229939244274689
1.1586229939298968716
1.1586229939377152842
1.1586229939414107726
1.1586229939425187752
1.1586229939427783453
1.1586229939428163149
1.1586229939428089875
1.1586229939428096536
1.1586229939428200897
1.1586229939428094315
1.1586229939428074331
1.1586229939428114299
1.158622993942806545
1.1586229939428007718
1.1586229939427934443
1.158622993942781676
1.1586229939427505897
1.1586229939431740288
1.1586229939465726435
1.1586229939483427831
1.1586229939100318731
1.1586229939043948267
1.1586229939177219439
1.1586229940341079558
1.158622993941039292
1.1586229939630856567
1.158622993956655467
1.1586229939207621786
1.1586229939137182576
1.1586229939245551446
1.1586229939362031605
1.1586229939552197266
1.158622993981212046
1.158622993900533249
1.1586229935297331917
1.1586229931064597753
1.1586229930810438837
1.1586229939648775566
1.1586229939853129878
1.1586229939431835767
1.1586229939253416266
1.1586229939295076274
1.1586229939374539377
1.1586229939410175316
1.1586229939421976987
1.1586229939425807256
1.1586229939427006297
1.1586229939427510338
1.1586229939427894475
1.1586229939427927782
1.1586229939427874491
1.1586229939427894475
1.1586229939427985514
1.1586229939427989954
1.1586229939427936664
1.1586229939427830082
1.1586229939427545865
1.1586229939430989777
1.158622993946221591
1.1586229939487402429
1.1586229939137817624
1.158622993904112608
1.1586229939162269176
1.1586229940394856541
1.1586229939435164216
1.1586229939667977984
1.1586229939602741279
1.1586229939230858754
1.1586229939180467952
1.1586229939302086223
1.1586229939524557153
1.1586229939801357958
1.1586229938997041344
1.1586229935259853008
1.158622993104078569
1.1586229931036959862
1.1586229939645993348
1.1586229939849364001
1.1586229939434691261
1.1586229939251029286
1.1586229939294176994
1.1586229939371179842
1.1586229939407812761
1.158622993941691437
1.1586229939420913393
1.1586229939420580326
1.1586229939422925117
1.1586229939425405355
1.1586229939426493374
1.1586229939426897495
1.15862299394274193
1.1586229939427714619
1.1586229939427881153
1.1586229939427761249
1.1586229939427477031
1.1586229939430889857
1.1586229939462056038
1.1586229939488073004
1.1586229939140790801
1.1586229939042484993
1.158622993916288868
1.1586229940396597371
1.158622993942806767
1.1586229939647743059
1.1586229939588554849
1.1586229939238641418
1.1586229939219170326
1.1586229939456254012
1.1586229939756595986
1.1586229938893517488
1.158622993505238119
1.1586229931663525328
1.1586229931013118932
1.1586229939697831881
1.1586229939849030934
1.1586229939406420542
1.1586229939254688581
1.1586229939308203551
1.1586229939339554029
1.1586229939380892073
1.1586229939405636724
1.1586229939412893142
1.1586229939416365919
1.1586229939416974322
1.1586229939419978585
1.1586229939419789847
1.158622993942284074
1.158622993942607815
1.1586229939427301616
1.1586229939427430402
1.1586229939427215019
1.1586229939430603419
1.1586229939461731853
1.1586229939487657781
1.1586229939141385881
1.1586229939044423443
1.1586229939162691061
1.1586229939695351643
1.1586229939885470674
1.1586229939462635574
1.1586229939297325586
1.1586229939267589373
1.1586229939313446025
1.1586229939374372844
1.1586229939380314757
1.1586229939358148044
1.158622993938077439
1.1586229939398626776
1.158622993940526591
1.1586229939408621004
1.1586229939417247436
1.1586229939422483248
1.1586229939424090851
1.1586229939424141921
1.1586229939427636904
1.1586229939458712046
1.1586229939484613549
1.1586229939138470435
1.1586229939042034243
1.1586229939161289959
1.1586229939708312386
1.1586229939899157504
1.158622993946798907
1.1586229939295609181
1.1586229939345089601
1.1586229939393313249
1.1586229939317291837
1.1586229939327452598
1.1586229939376748721
1.1586229939386427645
1.1586229939358119179
1.1586229939384642407
1.1586229939409025125
1.1586229939417755919
1.1586229939419547819
1.1586229939423242641
1.1586229939454375515
1.1586229939479935069
1.1586229939133447786
1.1586229939040164627
1.158622993916692101
1.1586229939730621208
1.158622993991596628
1.1586229939489061103
1.1586229939233434472
1.1586229939281680323
1.1586229939370826791
1.1586229939351266882
1.1586229939319472315
1.1586229939358310137
1.1586229939384584675
1.1586229939392567179
1.1586229939397614253
1.1586229939428818181
1.1586229939453944748
1.1586229939108907416
1.15862299390275858
1.1586229939160339608
1.1586229939715810833
1.158622993989525618
1.1586229939500687358
1.1586229939276215806
1.158622993930973788
1.1586229939361893937
1.1586229939382792775
1.1586229939390992882
1.1586229939421253121
1.1586229939440306769
1.1586229939106360565
1.1586229939103602771
1.1586229939209398143
1.1586229939746848228
1.1586229939903753827
1.1586229939501222486
1.1586229939305940917
1.1586229939339818262
1.1586229939377561404
1.1586229939394157018
1.1586229939424148583
1.1586229939443410952
1.1586229939149217394
1.158622993917453492
1.1586229939161598601
1.1586230339578087456
1.1586230339443621684
1.1586230339153886781
1.1586230338964875752
1.1586230338850316279
1.1586230338740259871
1.1586230338625698177
1.1586230338509200255
1.1586230338392415895
1.1586230338275749219
1.1586230338159297926
1.1586230338042975418
1.1586230337926790579
1.1586230337810703439
1.1586230337695448966
1.158623033758744425
1.1586230337478133912
1.1586230337254801448
1.1586230337269172175
1.1586230336793841289
1.158623133759613566
1.1586231337247312467
1.1586231336736534381
1.1586231336101877609
1.1586231335617283023
1.1586231335169814294
1.1586231334714782726
1.1586231334254479819
1.1586231333793337583
1.1586231333332583926
1.1586231332872367616
1.1586231332412793016
1.1586231331953862345
1.1586231331495699948
1.1586231331038088221
1.1586231330581204801
1.1586231330127754191
1.158623132967927738
1.1586231329185789907
1.1586231328632292659
1.1586231328577725197
1.1586231327414315828
1.1586234563905362105
1.1586234561539654475
1.1586234559754378104
1.1586234558044823384
1.1586234556082186664
1.1586234554050247603
1.1586234552193643843
1.1586234550356688811
1.1586234548506215702
1.1586234546651346111
1.1586234544797593404
1.1586234542946209913
1.1586234541097282236
1.1586234539250961362
1.1586234537407273937
1.158623453556631766
1.1586234533727808316
1.1586234531891850263
1.1586234530061145787
1.1586234528242567166
1.1586234526386147703
1.158623452439536905
1.1586234522809937264
1.1586234521148659482
1.158623451917929259
1.1586234516767166536
1.1586241301746214027
1.1586241290423360262
1.1586241283933449431
1.15862412781997004
1.1586241272848565309
1.1586241267254200338
1.1586241261828644777
1.158624125649261094
1.1586241251144095976
1.1586241245786979004
1.1586241240432910704
1.1586241235085550372
1.1586241229745315451
1.1586241224412072715
1.1586241219086104159
1.1586241213767807245
1.1586241208456944385
1.1586241203153206936
1.1586241197856572693
1.1586241192568140779
1.158624118729208563
1.1586241182013437001
1.1586241176640486028
1.1586241171345730283
1.1586241166389030788
1.1586241161046990644
1.1586241156294911914
1.1586241149954039642
1.1586252995556680645
1.1586252965357606293
1.1586252932349503375
1.1586252913900429995
1.1586252899233617786
1.1586252885109111777
1.1586252871004725229
1.1586252857058723098
1.1586252843138828972
1.1586252829208758541
1.1586252815286275375
1.1586252801380891864
1.1586252787494981664
1.158625277362821171
1.158625275978023339
1.1586252745951746146
1.1586252732143420552
1.1586252718354796976
1.158625270458514489
1.1586252690834601964
1.1586252677103654474
1.1586252663395131268
1.1586252649706896278
1.1586252635972877911
1.1586252622201864693
1.1586252608724916247
1.1586252595069970184
1.1586252581737996881
1.1586252568417256814
1.1586252553717244496
1.1586265101898223229
1.1586265258809351764
1.1586265190401487946
1.1586265111924336502
1.1586265072837595991
1.1586265044515036138
1.1586265017589354454
1.1586264990880426051
1.1586264964263024435
1.1586264937650589957
1.1586264911051147308
1.1586264884481485282
1.1586264857947128348
1.158626483144908903
1.1586264804986412535
1.1586264778558588162
1.1586264752166732794
1.1586264725811854515
1.1586264699493273866
1.1586264673209920595
1.158626464696174363
1.158626462074918706
1.158626459457381852
1.1586264568436788203
1.1586264542308934988
1.1586264516137867453
1.15862644900960432
1.1586264464076561076
1.1586264438080631223
1.1586264412464404305
1.1586264386822653361
1.1586264360640554649
1.1586275817712299308
1.1586276114164044682
1.1586275991091505855
1.1586275847047331489
1.1586275779178514256
1.1586275732090953738
1.1586275687956164582
1.1586275644247048255
1.1586275600613655801
1.1586275557007743586
1.1586275513447532592
1.1586275469944415928
1.1586275426501346786
1.1586275383118462834
1.1586275339794487316
1.1586275296528811829
1.158627525332291075
1.1586275210177825468
1.1586275167092916494
1.1586275124066729436
1.158627508109909332
1.1586275038190529951
1.15862749953420896
1.1586274952555075668
1.1586274909817688705
1.1586274867082744233
1.1586274824411169071
1.1586274781816565671
1.158627473914400241
1.1586274696842269183
1.1586274654845643006
1.1586274614400693395
1.1586274571682964041
1.1586283564266943724
1.1586283281080369534
1.1586283049669794387
1.1586282962107661287
1.1586282853349680888
1.158628230650590174
1.158627990636674987
1.1586280508021533642
1.1586280260885262194
1.1586280018109080814
1.1586279922464952641
1.1586279863144559599
1.1586279809346284875
1.1586279756368995653
1.1586279703491884074
1.1586279650665025631
1.158627959790363926
1.1586279545213984399
1.1586279492597124641
1.1586279440053022238
1.1586279387579949685
1.1586279335177172012
1.1586279282846454475
1.1586279230589242584
1.1586279178404781387
1.1586279126291134656
1.1586279074248038157
1.1586279022276351203
1.1586278970376697739
1.1586278918549979267
1.1586278866792081299
1.1586278815077319937
1.1586278763405235548
1.1586278711814477216
1.158627866016266994
1.1586278608632312181
1.1586278557605187434
1.1586278509877774301
1.1586278453487088846
1.158627831398153063
1.1586026314644983781
1.1586027181221996152
1.1586026892432708113
1.158602681676834667
1.158602694597478111
1.1586027051373679608
1.1586026400818558724
1.1586035440532891361
1.1586036297954191987
1.1586036030138615605
1.1586035917615247204
1.1586036022355565844
1.1586036172771083663
1.1586036330179245724
1.158603648845640377
1.1586036646565329722
1.158603680444096673
1.1586036962095864755
1.1586037119532912598
1.1586037276754916903
1.158603743376068973
1.1586037590548126097
1.1586037747118385077
1.158603790347395579
1.15860380596170498
1.1586038215545484409
1.1586038371257749713
1.1586038526755515488
1.1586038682038632963
1.1586038837109706723
1.1586038991968687917
1.1586039146613433815
1.1586039301029289472
1.1586039455200167758
1.1586039609161169484
1.1586039762795095065
1.1586039916113362036
1.1586040069707517208
1.158604022782002696
1.1586040367935401818
1.1586040407696911458
1.1586039791928668397
1.1586229939422887369
1.1586229939422856283
1.1586229939422887369
1.1586229939422885149
1.1586229939422834079
1.1586229939422780788
1.158622993942328705
1.1586229939424739221
1.1586229939425440882
1.1586229939424719237
1.1586229939425118918
1.1586229939422962865
1.1586229939422878488
1.1586229939422905133
1.1586229939422880708
1.1586229939422845181
1.1586229939422900692
1.1586229939422836299
1.158622993942279189
1.1586229939422831858
1.1586229939422787449
1.1586229939422882929
1.1586229939422860724
1.1586229939422842961
1.1586229939422862945
1.1586229939422820756
1.1586229939422887369
1.1586229939422876267
1.1586229939422798552
1.158622993942288959
1.1586229939422811874
1.1586229939422931778
1.1586229939422765245
1.1586229939422885149
1.1586229939422867385
1.1586229939422862945
1.1586229939422831858
1.1586229939422829638
1.1586229939422807433
1.1586229939422874047
1.1586229939422822977
1.158622993942288959
1.1586229939422780788
1.1586229939422931778
1.1586229939422836299
1.1586229939422809654
1.1586229939422902913
1.1586229939422698632
1.1586229939422942881
1.158622993942298729
1.158622993942283852
1.1586229939422854063
1.1586229939422865165
1.1586229939422896251
1.1586229939422933999
1.1586229939422769686
1.158622993942284074
1.1586229939422887369
1.1586229939422965085
1.1586229939422827417
1.1586229939422767465
1.1586229939422967306
1.1586229939422818536
1.1586229939423309254
1.1586229939424712576
1.1586229939425407576
1.1586229939424754765
1.1586229939425052304
1.1586229939422854063
1.1586229939422865165
1.1586229939422829638
1.1586229939422816315
1.1586229939422876267
1.1586229939422849622
1.1586229939422847401
1.1586229939422829638
1.1586229939422820756
1.1586229939422834079
1.158622993942283852
1.1586229939422862945
1.1586229939422818536
1.1586229939422836299
1.1586229939422849622
1.1586229939422874047
1.1586229939422865165
1.1586229939422862945
1.1586229939422876267
1.1586229939422862945
1.1586229939422902913
1.1586229939422865165
1.1586229939422871826
1.1586229939422798552
1.1586229939422845181
1.1586229939422847401
1.1586229939422876267
1.1586229939422849622
1.1586229939422871826
1.1586229939422867385
1.158622993942284074
1.1586229939422836299
1.1586229939422854063
1.1586229939422862945
1.1586229939422827417
1.1586229939422885149
1.1586229939422780788
1.1586229939422767465
1.1586229939422871826
1.1586229939422816315
1.1586229939422869606
1.1586229939422771906
1.1586229939422811874
1.158622993942283852
1.1586229939422918456
1.1586229939422907353
1.1586229939422849622
1.158622993942298951
1.158622993942284074
1.158622993942279189
1.158622993942294066
1.1586229939422780788
1.1586229939423280388
1.1586229939424717017
1.1586229939425423119
1.1586229939424737001
1.1586229939425065627
1.1586229939422847401
1.1586229939422818536
1.1586229939422862945
1.1586229939422869606
1.1586229939422898472
1.1586229939422869606
1.1586229939422851842
1.1586229939422856283
1.158622993942284074
1.158622993942289181
1.1586229939422876267
1.158622993942283852
1.1586229939422860724
1.1586229939422862945
1.1586229939422880708
1.158622993942289181
1.1586229939422882929
1.1586229939422862945
1.1586229939422862945
1.1586229939422885149
1.1586229939422874047
1.1586229939422845181
1.1586229939422816315
1.1586229939422869606
1.1586229939422876267
1.1586229939422885149
1.1586229939422867385
1.1586229939422847401
1.1586229939422858504
1.1586229939422869606
1.1586229939422876267
1.1586229939422847401
1.1586229939422827417
1.158622993942284074
1.1586229939422767465
1.1586229939422862945
1.1586229939422805213
1.1586229939422860724
1.1586229939422860724
1.1586229939422834079
1.1586229939422798552
1.1586229939422871826
1.1586229939422783008
1.1586229939422929558
1.1586229939422847401
1.1586229939422922897
1.1586229939422854063
1.158622993942288959
1.1586229939422836299
1.1586229939423258184
1.1586229939424721458
1.158622993942542756
1.158622993942468371
1.1586229939425125579
1.1586229939422856283
1.1586229939422858504
1.1586229939422856283
1.1586229939422834079
1.1586229939422851842
1.1586229939422878488
1.1586229939422858504
1.1586229939422829638
1.1586229939422869606
1.1586229939422842961
1.1586229939422874047
1.1586229939422869606
1.1586229939422867385
1.1586229939422825197
1.158622993942284074
1.158622993942288959
1.1586229939422887369
1.1586229939422867385
1.1586229939422876267
1.158622993942288959
1.1586229939422856283
1.1586229939422854063
1.1586229939422827417
1.1586229939422822977
1.158622993942283852
1.1586229939422878488
1.1586229939422847401
1.1586229939422856283
1.1586229939422805213
1.1586229939422869606
1.1586229939422829638
1.158622993942284074
1.158622993942288959
1.1586229939422847401
1.1586229939422820756
1.1586229939422927337
1.1586229939422822977
1.1586229939422771906
1.1586229939422862945
1.1586229939422807433
1.1586229939422871826
1.1586229939422805213
1.1586229939422867385
1.1586229939422925117
1.1586229939422820756
1.1586229939422931778
1.158622993942284074
1.1586229939422854063
1.1586229939422856283
1.1586229939423169366
1.1586229939424828039
1.1586229939425425339
1.1586229939424621538
1.1586229939425136681
1.1586229939422865165
1.1586229939422849622
1.1586229939422858504
1.1586229939422827417
1.1586229939422831858
1.1586229939422858504
1.1586229939422825197
1.1586229939422836299
1.1586229939422825197
1.1586229939422822977
1.1586229939422816315
1.158622993942284074
1.1586229939422862945
1.1586229939422878488
1.1586229939422851842
1.1586229939422865165
1.1586229939422820756
1.1586229939422907353
1.1586229939422860724
1.1586229939422829638
1.1586229939422860724
1.1586229939422807433
1.1586229939422820756
1.1586229939422805213
1.1586229939422845181
1.1586229939422849622
1.1586229939422869606
1.1586229939422845181
1.1586229939422876267
1.1586229939422802993
1.1586229939422885149
1.1586229939422878488
1.1586229939422847401
1.1586229939422927337
1.1586229939422814095
1.1586229939422894031
1.1586229939422778568
1.1586229939422834079
1.1586229939422869606
1.158622993942284074
1.158622993942288959
1.1586229939422849622
1.1586229939422907353
1.1586229939422854063
1.1586229939422825197
1.1586229939422763024
1.1586229939423218216