/*--------------------------------*- C++ -*----------------------------------*\
  =========                 |
  \\      /  F ield         | OpenFOAM: The Open Source CFD Toolbox
   \\    /   O peration     | Website:  https://openfoam.org
    \\  /    A nd           | Version:  12
     \\/     M anipulation  |
\*---------------------------------------------------------------------------*/
FoamFile
{
    format      ascii;
    class       volScalarField;
    location    "1e-05";
    object      rho_0;
}
// * * * * * * * * * * * * * * * * * * * * * * * * * * * * * * * * * * * * * //

dimensions      [1 -3 0 0 0 0 0];

internalField   nonuniform List<scalar> 
106891
(
1.1586229940437444696
1.15862299394756052
1.1586229939695020796
1.15862299396115076
1.1586229939285266344
1.1586229939378793752
1.1586229939704417724
1.1586229939017960167
1.1586229935737637486
1.1586229932197618098
1.1586229928857054716
1.1586229939650618537
1.1586229939878835982
1.1586229939411825107
1.1586229939210912487
1.1586229939294461211
1.1586229939364340868
1.1586229939387904242
1.158622993939272261
1.158622993939337098
1.1586229939393295485
1.1586229939393237753
1.1586229939393211108
1.1586229939393233312
1.1586229939393091204
1.158622993939307344
1.1586229939393017929
1.1586229939392918009
1.1586229939392891364
1.1586229939392853616
1.1586229939392851396
1.1586229939392742594
1.1586229939392695965
1.1586229939392636012
1.1586229939392616028
1.1586229939392582722
1.1586229939392505006
1.1586229939392445054
1.1586229939392407307
1.1586229939392320709
1.1586229939392307386
1.158622993939217638
1.158622993939222523
1.1586229939398617894
1.1586229939426806457
1.1586229939396939237
1.1586229939017309576
1.1586229939162580038
1.1586229939130596733
1.1586229940380792236
1.158622993939207424
1.1586229939685324108
1.1586229939543699619
1.1586229939174657044
1.1586229939162384639
1.1586229939272785217
1.1586229939364465213
1.1586229939349446116
1.1586229939387140409
1.1586229939367842512
1.1586229939385290777
1.1586229939362189256
1.1586229939370338293
1.1586229939521310861
1.1586229939771912623
1.1586229939030243674
1.1586229935760996579
1.1586229932187559477
1.1586229928349829343
1.1586229939698833302
1.1586229939889087781
1.1586229939374679265
1.1586229939227539187
1.1586229939322456595
1.1586229939382515219
1.1586229939399885769
1.1586229939403069888
1.158622993940342516
1.1586229939403442923
1.158622993940337631
1.158622993940332746
1.1586229939403240863
1.1586229939403218658
1.1586229939403163147
1.158622993940307877
1.1586229939403047684
1.1586229939403041023
1.158622993940297885
1.1586229939402885591
1.1586229939402823419
1.1586229939402787892
1.158622993940277679
1.1586229939402743483
1.1586229939402610256
1.1586229939402592493
1.1586229939402574729
1.1586229939402459266
1.1586229939402350464
1.1586229939402170608
1.1586229939406489375
1.1586229939437138192
1.1586229939439434133
1.1586229939054251137
1.1586229939071028827
1.1586229939203622763
1.1586229940371861602
1.1586229939401266886
1.1586229939709991044
1.1586229939546408563
1.1586229939175320958
1.1586229939151428958
1.1586229939209145012
1.1586229939293599678
1.1586229939348735574
1.1586229939337362449
1.1586229939357892693
1.1586229939362076014
1.1586229939333014816
1.1586229939364138808
1.1586229939528003285
1.1586229939783112552
1.1586229939049430548
1.1586229935799143842
1.15862299322307849
1.1586229928292541835
1.1586229939634236086
1.1586229939862477956
1.1586229939383787535
1.1586229939212624451
1.1586229939309387049
1.1586229939380658926
1.1586229939404262268
1.1586229939409120604
1.1586229939409751211
1.1586229939409786738
1.1586229939409742329
1.158622993940970014
1.1586229939409617984
1.1586229939409606882
1.1586229939409518064
1.1586229939409484757
1.1586229939409420364
1.1586229939409387057
1.1586229939409342649
1.1586229939409276035
1.1586229939409224965
1.1586229939409204981
1.1586229939409169454
1.1586229939409111722
1.1586229939409093959
1.1586229939408974055
1.1586229939408934086
1.1586229939408814182
1.1586229939408720924
1.1586229939409553591
1.158622993941841095
1.1586229939439502967
1.1586229939379053544
1.1586229939042838044
1.1586229939138865674
1.1586229939109489173
1.1586229940311962849
1.1586229939431309521
1.1586229939668333255
1.1586229939462722172
1.158622993914715682
1.1586229939177914439
1.1586229939296586178
1.1586229939364522945
1.1586229939386474275
1.1586229939393677402
1.1586229939394678823
1.1586229939395842337
1.1586229939420957802
1.1586229939564769431
1.1586229939809311595
1.1586229939076808648
1.1586229935834648774
1.1586229932247154029
1.1586229928124138766
1.1586229939690797508
1.1586229939868342154
1.1586229939369885322
1.1586229939244112597
1.1586229939342200801
1.1586229939403396294
1.1586229939422034718
1.1586229939425600755
1.1586229939426033742
1.1586229939426053726
1.1586229939426011537
1.1586229939425960467
1.1586229939425902735
1.158622993942582502
1.1586229939425745084
1.1586229939425709556
1.1586229939425700675
1.1586229939425645163
1.1586229939425560787
1.1586229939425525259
1.1586229939425498614
1.1586229939425454205
1.1586229939425396473
1.1586229939425336521
1.158622993942528101
1.158622993942523216
1.1586229939425112256
1.1586229939425096713
1.158622993943045465
1.1586229939459755656
1.1586229939446903714
1.1586229939070240569
1.1586229939133736444
1.1586229939128773747
1.1586229940348939937
1.1586229939373982045
1.1586229939710279702
1.1586229939533931876
1.1586229939136787337
1.1586229939142456136
1.158622993927882483
1.1586229939361674113
1.1586229939391841093
1.158622993939889545
1.1586229939400969347
1.1586229939400429778
1.1586229939401453404
1.1586229939425316537
1.1586229939568137848
1.1586229939814620682
1.1586229939092431707
1.1586229935827292437
1.158622993195773665
1.1586229928678446477
1.1586229939659218324
1.1586229939855692272
1.1586229939396277544
1.1586229939241123876
1.1586229939313115178
1.1586229939388419385
1.1586229939418668522
1.1586229939426269109
1.1586229939427659108
1.1586229939427807878
1.1586229939427745705
1.1586229939427685753
1.1586229939427612479
1.1586229939427601376
1.1586229939427516999
1.1586229939427508118
1.1586229939427432623
1.1586229939427350466
1.1586229939427343805
1.1586229939427292734
1.1586229939427228341
1.1586229939427212798
1.158622993942712176
1.1586229939427046265
1.1586229939426999636
1.1586229939426877511
1.1586229939426633262
1.1586229939430601199
1.1586229939461396565
1.1586229939472623141
1.1586229939102061781
1.1586229939077552498
1.1586229939209140571
1.1586229940344239253
1.1586229939398871025
1.1586229939702663572
1.1586229939495331642
1.1586229939138079637
1.1586229939167116409
1.1586229939298007263
1.158622993937350687
1.1586229939399070865
1.1586229939405050526
1.1586229939405712219
1.1586229939405932043
1.1586229939428236424
1.1586229939570285019
1.1586229939818584178
1.1586229939104533138
1.1586229935842313754
1.158622993184931671
1.1586229928559825808
1.1586229939689456359
1.158622993985364058
1.1586229939388181798
1.1586229939244121478
1.1586229939318983817
1.1586229939392844734
1.1586229939421177626
1.1586229939427739044
1.1586229939428804858
1.158622993942886481
1.1586229939428824842
1.1586229939428767111
1.158622993942871382
1.1586229939428644986
1.1586229939428607238
1.1586229939428507318
1.1586229939428480673
1.1586229939428431823
1.1586229939428405178
1.1586229939428356328
1.1586229939428331903
1.1586229939428240865
1.1586229939428211999
1.1586229939428129843
1.1586229939428021041
1.1586229939428560609
1.1586229939435943592
1.1586229939460035432
1.1586229939424188551
1.1586229939084762286
1.1586229939121854837
1.1586229939137333567
1.1586229940372525515
1.1586229939385193077
1.1586229939676027101
1.1586229939533914113
1.1586229939161978297
1.1586229939163250613
1.1586229939291161628
1.1586229939370535913
1.1586229939398569044
1.1586229939405390255
1.158622993940611412
1.1586229939406169631
1.1586229939428362989
1.1586229939570691361
1.1586229939822794144
1.1586229939117198562
1.1586229935751306552
1.1586229931450195973
1.1586229929880238476
1.1586229939674472789
1.1586229939873788908
1.1586229939396621713
1.1586229939247691956
1.1586229939324659277
1.158622993939610879
1.1586229939422116875
1.15862299394280166
1.1586229939428827063
1.1586229939428873692
1.1586229939428769331
1.1586229939428756008
1.1586229939428711599
1.1586229939428605018
1.1586229939428560609
1.158622993942856727
1.1586229939428480673
1.1586229939428456248
1.1586229939428425162
1.1586229939428398517
1.1586229939428276392
1.1586229939428254188
1.1586229939428140945
1.158622993942791668
1.1586229939432430847
1.1586229939462320271
1.1586229939463730254
1.1586229939097940633
1.1586229939104208952
1.1586229939140639811
1.1586229940360930346
1.1586229939406285094
1.1586229939684800083
1.1586229939507206588
1.1586229939159871094
1.1586229939178942505
1.1586229939302263858
1.1586229939374932396
1.1586229939399748101
1.1586229939405192635
1.1586229939406100797
1.1586229939428389635
1.1586229939571357495
1.1586229939828629476
1.1586229939113419363
1.1586229935553487014
1.1586229931281055716
1.1586229930741833716
1.1586229939685224188
1.1586229939894092666
1.1586229939381502696
1.1586229939255607846
1.1586229939348955398
1.1586229939407630685
1.1586229939425300994
1.1586229939428489555
1.1586229939428804858
1.1586229939428840385
1.1586229939428882574
1.1586229939428749347
1.1586229939428696056
1.1586229939428627222
1.1586229939428529523
1.1586229939428545066
1.1586229939428454028
1.1586229939428427382
1.1586229939428378533
1.1586229939428369651
1.1586229939428185354
1.1586229939427927782
1.1586229939431471614
1.1586229939462129312
1.1586229939481187401
1.1586229939123522392
1.1586229939062375749
1.1586229939199486072
1.1586229940358601098
1.1586229939396086586
1.1586229939672365585
1.158622993952618252
1.1586229939172418835
1.1586229939157770552
1.1586229939279684142
1.1586229939363781316
1.1586229939396028854
1.1586229939404253386
1.1586229939405896516
1.1586229939428358549
1.1586229939571623948
1.1586229939831140801
1.1586229939120569199
1.1586229935541558778
1.1586229931233567036
1.1586229930895315388
1.1586229939697467728
1.158622993987479699
1.1586229939380463527
1.1586229939270777933
1.1586229939359213859
1.158622993941094137
1.1586229939425951585
1.1586229939428582814
1.1586229939428829283
1.1586229939428838165
1.1586229939428802638
1.1586229939428798197
1.1586229939428729363
1.1586229939428569491
1.1586229939428607238
1.1586229939428545066
1.1586229939428485114
1.1586229939428398517
1.1586229939428427382
1.1586229939428234204
1.1586229939427998836
1.158622993943140278
1.1586229939459338212
1.1586229939475150008
1.1586229939142649314
1.1586229939082104412
1.1586229939134848888
1.1586229940341190581
1.1586229939414600665
1.1586229939674943523
1.1586229939517462828
1.1586229939172256742
1.1586229939159498059
1.158622993927967304
1.1586229939363146269
1.1586229939395171762
1.1586229939403984712
1.1586229939428025482
1.1586229939571717207
1.1586229939833034841
1.1586229939128001032
1.1586229935554139825
1.1586229931239082624
1.1586229930912208541
1.1586229939657370913
1.1586229939900154484
1.1586229939366259334
1.158622993922247657
1.1586229939331786909
1.1586229939402026279
1.1586229939423982049
1.1586229939428300817
1.1586229939428884794
1.1586229939428918101
1.1586229939428822622
1.1586229939428807079
1.1586229939428775992
1.1586229939428704938
1.1586229939428629443
1.1586229939428609459
1.1586229939428578373
1.1586229939428493996
1.1586229939428445146
1.1586229939428402957
1.1586229939428045466
1.1586229939431034186
1.1586229939458452254
1.1586229939479866236
1.1586229939156682534
1.1586229939089929264
1.1586229939158838587
1.1586229940344605627
1.1586229939400216615
1.1586229939673524658
1.1586229939531649258
1.1586229939183423365
1.1586229939156669211
1.1586229939273262612
1.1586229939358638763
1.1586229939393102306
1.1586229939425103375
1.1586229939570527048
1.1586229939830781088
1.1586229939121606147
1.1586229935542762259
1.1586229931225477952
1.1586229930897036233
1.1586229939645478204
1.1586229939869141514
1.1586229939386274435
1.1586229939217269624
1.1586229939294965252
1.1586229939379975029
1.1586229939416294865
1.1586229939426286872
1.1586229939428305258
1.1586229939428729363
1.1586229939428711599
1.1586229939428609459
1.1586229939428631663
1.1586229939428582814
1.1586229939428511759
1.1586229939428469571
1.1586229939428427382
1.1586229939428362989
1.1586229939428331903
1.1586229939428287494
1.1586229939428136504
1.158622993942791668
1.1586229939431760272
1.1586229939460803706
1.1586229939472598716
1.1586229939124303989
1.1586229939066110539
1.158622993912824084
1.1586229940334686894
1.1586229939410088718
1.1586229939665404487
1.1586229939545786838
1.1586229939195167304
1.1586229939150280988
1.1586229939263956723
1.1586229939353904772
1.1586229939413190682
1.1586229939566345948
1.1586229939823740054
1.158622993909961707
1.1586229935499419152
1.1586229931171425633
1.1586229930835318935
1.1586229939681833567
1.1586229939840304581
1.1586229939400498612
1.1586229939243277709
1.1586229939302561398
1.1586229939379897314
1.158622993941532231
1.158622993942572954
1.1586229939428127622
1.1586229939428476232
1.1586229939428396296
1.1586229939428398517
1.1586229939428505098
1.1586229939428394076
1.1586229939428369651
1.1586229939428411839
1.158622993942836521
1.1586229939428303037
1.1586229939428238644
1.1586229939428123181
1.1586229939427805657
1.1586229939431613722
1.1586229939464345318
1.1586229939487195928
1.1586229939117618226
1.1586229939024950131
1.1586229939175054504
1.1586229940333676591
1.1586229939406245126
1.1586229939652461507
1.1586229939549896883
1.1586229939195176186
1.158622993914078636
1.1586229939252699062
1.15862299393637036
1.158622993954315783
1.158622993981127447
1.1586229939097556496
1.1586229935505254485
1.1586229931164928608
1.158622993085540287
1.1586229939659635768
1.1586229939856089732
1.158622993942090007
1.1586229939251742049
1.1586229939298648972
1.158622993937734158
1.1586229939411454293
1.15862299394226409
1.1586229939426244684
1.1586229939427357127
1.1586229939427850066
1.158622993942821422
1.1586229939428238644
1.1586229939428183133
1.1586229939428207558
1.1586229939428291935
1.1586229939428285274
1.1586229939428234204
1.1586229939428134283
1.1586229939427850066
1.1586229939430925384
1.1586229939460914728
1.1586229939490411134
1.1586229939154302215
1.1586229939024610402
1.1586229939158187996
1.1586229940389587423
1.1586229939429346647
1.1586229939691683466
1.1586229939584757886
1.1586229939219359064
1.158622993918384525
1.1586229939305192627
1.1586229939516843324
1.1586229939800984923
1.1586229939089927043
1.1586229935469647412
1.1586229931132658866
1.1586229931083293909
1.1586229939656611521
1.1586229939852552562
1.1586229939423842161
1.1586229939248946508
1.1586229939297514324
1.1586229939373868802
1.1586229939409278256
1.1586229939417755919
1.1586229939421441859
1.1586229939421079926
1.1586229939423451363
1.1586229939425842783
1.1586229939426866409
1.1586229939427257207
1.1586229939427759028
1.1586229939428034363
1.1586229939428187574
1.1586229939428069891
1.1586229939427787894
1.1586229939430834346
1.1586229939460765959
1.1586229939491026197
1.1586229939157197677
1.1586229939026102542
1.1586229939158689817
1.1586229940391929993
1.1586229939421039958
1.1586229939670908973
1.1586229939570951153
1.1586229939226972974
1.1586229939218726237
1.1586229939449510518
1.1586229939757854979
1.1586229938992158583
1.1586229935253413714
1.1586229931704417062
1.1586229931119242931
1.1586229939706746972
1.1586229939856618198
1.1586229939392818089
1.1586229939255074939
1.1586229939309398151
1.1586229939341867734
1.1586229939382721721
1.1586229939406651468
1.158622993941353263
1.1586229939417171941
1.1586229939417715951
1.1586229939420520374
1.1586229939420313872
1.1586229939423382529
1.1586229939426508917
1.1586229939427643565
1.1586229939427759028
1.1586229939427536983
1.158622993943055679
1.1586229939460455096
1.1586229939490617635
1.1586229939157741686
1.158622993902803211
1.1586229939158523283
1.1586229939702701319
1.1586229939890089202
1.1586229939451317961
1.1586229939296928126
1.1586229939271635025
1.1586229939313694715
1.1586229939376624376
1.1586229939379200093
1.1586229939359153907
1.1586229939382430842
1.1586229939399830258
1.1586229939406011979
1.1586229939409558032
1.158622993941806012
1.1586229939423058344
1.1586229939424552704
1.1586229939424568247
1.1586229939427699076
1.1586229939457544091
1.1586229939487679985
1.1586229939154915058
1.1586229939025705082
1.158622993915716215
1.158622993971370807
1.1586229939904402197
1.158622993945624291
1.1586229939293533064
1.1586229939347443274
1.1586229939394696586
1.1586229939319618865
1.1586229939326548877
1.1586229939379015796
1.1586229939385164212
1.1586229939359045105
1.1586229939386560872
1.1586229939410255252
1.1586229939418486445
1.1586229939420125135
1.1586229939423418056
1.1586229939453318583
1.1586229939483134732
1.1586229939150010093
1.1586229939023693358
1.1586229939162631108
1.1586229939734409289
1.1586229939921208754
1.1586229939478138729
1.1586229939233745334
1.1586229939281955659
1.1586229939372818531
1.1586229939348908768
1.1586229939320844551
1.1586229939360523922
1.158622993938590362
1.1586229939393395405
1.1586229939397940658
1.1586229939427905578
1.1586229939457299842
1.1586229939125420874
1.1586229939010654899
1.1586229939156091895
1.1586229939719385751
1.1586229939903089914
1.1586229939487973084
1.1586229939273851031
1.1586229939312131521
1.1586229939363674735
1.158622993938361434
1.1586229939391132771
1.1586229939420222834
1.1586229939443670744
1.1586229939121308607
1.1586229939083940721
1.1586229939207846051
1.1586229939750611884
1.1586229939909982178
1.1586229939488725815
1.1586229939303258618
1.158622993934065315
1.1586229939377821196
1.1586229939393450916
1.1586229939422236779
1.1586229939445373827
1.1586229939161207803
1.1586229939155103796
1.1586229939161287739
1.1586230306726510442
1.1586230306609153207
1.1586230306319169614
1.1586230306142539792
1.1586230306040006255
1.1586230305941085383
1.1586230305837561527
1.1586230305732143631
1.158623030562645484
1.1586230305520870409
1.158623030541548804
1.1586230305310214472
1.1586230305205069691
1.1586230305100007065
1.1586230304995681628
1.1586230304898432752
1.1586230304801434787
1.1586230304591165208
1.1586230304601428109
1.1586230304161400095
1.1586231235718993382
1.1586231235427508768
1.1586231234934385448
1.1586231234339159357
1.1586231233897816839
1.1586231233490615899
1.1586231233075221514
1.1586231232654633505
1.1586231232233226152
1.1586231231812185172
1.1586231231391626029
1.1586231230971657524
1.1586231230552266336
1.1586231230133587911
1.1586231229715411306
1.1586231229297883072
1.1586231228883590028
1.158623122847460607
1.1586231228022840778
1.1586231227504026897
1.1586231227478243078
1.1586231226385714788
1.1586234295922388515
1.1586234293728621125
1.1586234292070904939
1.158623429049780329
1.1586234288653167734
1.1586234286759464762
1.1586234285039158642
1.1586234283334451156
1.1586234281615783726
1.1586234279892775323
1.1586234278170790546
1.1586234276451019554
1.1586234274733522298
1.1586234273018447549
1.1586234271305821952
1.1586234269595738766
1.1586234267887920435
1.1586234266182453556
1.1586234264481889422
1.1586234262793393412
1.1586234261070407214
1.1586234259207939257
1.1586234257733905029
1.1586234256229845929
1.1586234254372316244
1.1586234252121836441
1.1586240766926449997
1.1586240756452657052
1.1586240750411418432
1.1586240745039491085
1.1586240740021056528
1.1586240734764552407
1.1586240729684276207
1.1586240724686360792
1.1586240719673801536
1.1586240714652575878
1.1586240709634194612
1.1586240704622128295
1.1586240699616749961
1.1586240694617924163
1.1586240689625924016
1.1586240684641135879
1.15862406796633155
1.1586240674692180885
1.1586240669727700947
1.1586240664770899311
1.1586240659825883803
1.1586240654879520484
1.1586240649840369166
1.1586240644863199378
1.1586240640235820898
1.1586240635229518858
1.1586240630797746132
1.1586240624807444544
1.1586252274978725563
1.158625224559495237
1.1586252214418220063
1.1586252196949844429
1.1586252182973904024
1.1586252169474293705
1.158625215600068703
1.1586252142681083832
1.1586252129381493514
1.1586252116070780982
1.1586252102767320427
1.1586252089480273408
1.1586252076211862594
1.158625206296172383
1.1586252049729517388
1.1586252036515938268
1.158625202332163262
1.1586252010146140812
1.1586251996988767843
1.1586251983849629177
1.158625197072920443
1.1586251957630149256
1.1586251944551171356
1.1586251931428985795
1.1586251918260856986
1.1586251905380209326
1.1586251892337782188
1.1586251879589068992
1.1586251866903343188
1.1586251852812059493
1.158626440741147956
1.1586264559046384193
1.1586264491424413947
1.1586264416358911244
1.1586264379088675458
1.1586264351843245102
1.1586264325849473522
1.1586264300056621224
1.1586264274347417569
1.158626424864053428
1.1586264222946247582
1.1586264197280951027
1.1586264171649831578
1.1586264146053857349
1.1586264120492035801
1.1586264094963858451
1.1586264069470437743
1.1586264044012792862
1.158626401859023769
1.1586263993201688649
1.1586263967847136858
1.1586263942526981996
1.1586263917242725086
1.1586263891995716158
1.1586263866758803598
1.1586263841477337788
1.1586263816315023334
1.1586263791183166738
1.1586263766053512825
1.1586263741320459442
1.1586263716580289529
1.1586263691224849559
1.1586275356154149829
1.1586275644954888708
1.1586275522056119769
1.1586275382841850767
1.1586275317438705645
1.1586275271535904086
1.1586275228321922803
1.1586275185493524198
1.1586275142733677423
1.1586275100000382743
1.1586275057312391823
1.1586275014680542661
1.1586274972107597492
1.158627492959367844
1.158627488713746212
1.1586274844738366774
1.1586274802397851236
1.158627476011698576
1.1586274717895110875
1.1586274675730754424
1.1586274633623774299
1.1586274591574694526
1.1586274549584512084
1.1586274507654568122
1.158627446577410236
1.1586274423896507635
1.158627438207636251
1.1586274340336033539
1.1586274298509213754
1.1586274257045008351
1.158627421588730444
1.158627417620958111
1.1586274134720535578
1.1586283135319317417
1.1586282853050868802
1.1586282627928279343
1.1586282543447765647
1.1586282440152770867
1.1586281901032220443
1.1586279529869896177
1.1586280120774115066
1.1586279873108931149
1.1586279636596565901
1.1586279544024418175
1.1586279485909039
1.158627943289656903
1.1586279380632511504
1.1586279328460176163
1.1586279276337700939
1.1586279224280184863
1.1586279172293496575
1.1586279120378579766
1.1586279068535421111
1.1586279016762242033
1.1586278965058309787
1.158627891342541627
1.1586278861865042522
1.1586278810376371418
1.1586278758957468948
1.1586278707608097527
1.1586278656329114245
1.1586278605121136387
1.1586278553985043249
1.1586278502917100042
1.1586278451892768615
1.1586278400909171271
1.1586278350006564697
1.1586278299044778795
1.1586278248191586027
1.1586278197806620938
1.1586278150627997707
1.1586278095974205105
1.1586277962370665762
1.1586030376880358528
1.1586031229985180868
1.1586030939739158097
1.1586030866233492098
1.1586030994016396356
1.1586031100345957068
1.1586030454756419683
1.1586039267716430334
1.1586040112652562506
1.1586039842357140905
1.1586039732390827073
1.1586039835743762172
1.1586039982676623605
1.1586040136105724141
1.1586040290314587597
1.158604044435159075
1.1586040598161502224
1.1586040751756705447
1.1586040905139771695
1.1586041058313429897
1.1586041211276518759
1.1586041364026877787
1.1586041516565641629
1.1586041668895332712
1.1586041821018167042
1.1586041972931926392
1.1586042124635089756
1.1586042276129311368
1.1586042427414464662
1.1586042578493127575
1.1586042729365233495
1.1586042880028764035
1.1586043030470074555
1.1586043180672696007
1.1586043330670652285
1.1586043480353924728
1.1586043629718103531
1.1586043779304699974
1.1586043933316483301
1.158604407116496926
1.1586044112607281065
1.158604349937249145
1.1586229939423042801
1.1586229939423005053
1.158622993942304058
1.158622993942304058
1.158622993942298729
1.1586229939422931778
1.1586229939423402513
1.158622993942483248
1.1586229939425611857
1.1586229939424894653
1.158622993942527879
1.1586229939423118296
1.1586229939423031698
1.1586229939423065005
1.1586229939423033919
1.1586229939422993951
1.1586229939423056123
1.158622993942298729
1.1586229939422945101
1.158622993942298729
1.1586229939422942881
1.1586229939423031698
1.1586229939423018376
1.1586229939422998392
1.1586229939423018376
1.1586229939422973967
1.1586229939423042801
1.1586229939423031698
1.1586229939422951762
1.1586229939423045021
1.1586229939422967306
1.158622993942309165
1.1586229939422916235
1.1586229939423036139
1.1586229939423022817
1.1586229939423018376
1.1586229939422982849
1.158622993942298951
1.1586229939422967306
1.1586229939423020596
1.1586229939422982849
1.1586229939423049462
1.1586229939422933999
1.1586229939423084989
1.1586229939422993951
1.1586229939422965085
1.1586229939423056123
1.1586229939422847401
1.158622993942308943
1.158622993942313828
1.1586229939422998392
1.1586229939423007274
1.1586229939423022817
1.1586229939423053903
1.1586229939423084989
1.1586229939422927337
1.1586229939422985069
1.1586229939423051682
1.1586229939423111635
1.1586229939422980628
1.1586229939422931778
1.1586229939423120516
1.1586229939422967306
1.1586229939423431379
1.1586229939424794733
1.158622993942557855
1.15862299394249324
1.1586229939425209956
1.1586229939423002833
1.1586229939423020596
1.1586229939422985069
1.1586229939422976187
1.1586229939423029478
1.1586229939423000612
1.1586229939423005053
1.158622993942298729
1.1586229939422973967
1.158622993942298729
1.158622993942298729
1.1586229939423022817
1.1586229939422971746
1.158622993942299173
1.1586229939423000612
1.1586229939423029478
1.1586229939423022817
1.1586229939423016155
1.1586229939423031698
1.1586229939423018376
1.1586229939423058344
1.1586229939423022817
1.1586229939423025037
1.1586229939422958424
1.1586229939423000612
1.1586229939423000612
1.1586229939423029478
1.1586229939422998392
1.1586229939423022817
1.1586229939423022817
1.1586229939423000612
1.158622993942298951
1.1586229939423007274
1.1586229939423020596
1.1586229939422973967
1.158622993942303836
1.1586229939422929558
1.1586229939422925117
1.1586229939423029478
1.1586229939422969526
1.1586229939423016155
1.1586229939422925117
1.1586229939422976187
1.158622993942299173
1.1586229939423073887
1.1586229939423058344
1.1586229939423005053
1.1586229939423147162
1.1586229939422996171
1.1586229939422947322
1.1586229939423100532
1.1586229939422931778
1.158622993942338919
1.1586229939424801394
1.1586229939425600755
1.1586229939424912416
1.158622993942522994
1.1586229939423000612
1.1586229939422973967
1.1586229939423020596
1.1586229939423025037
1.1586229939423056123
1.1586229939423022817
1.1586229939423009494
1.1586229939423009494
1.1586229939422993951
1.158622993942304058
1.1586229939423031698
1.1586229939422993951
1.1586229939423016155
1.1586229939423016155
1.1586229939423036139
1.1586229939423047242
1.158622993942303836
1.1586229939423020596
1.1586229939423020596
1.158622993942304058
1.1586229939423027258
1.1586229939422993951
1.1586229939422973967
1.1586229939423022817
1.1586229939423029478
1.158622993942303836
1.1586229939423022817
1.1586229939423000612
1.1586229939423016155
1.1586229939423029478
1.1586229939423033919
1.1586229939423002833
1.1586229939422980628
1.1586229939422998392
1.1586229939422929558
1.1586229939423011714
1.1586229939422956203
1.1586229939423011714
1.1586229939423018376
1.1586229939422993951
1.1586229939422947322
1.1586229939423029478
1.158622993942293844
1.1586229939423082769
1.1586229939423000612
1.1586229939423080548
1.1586229939423009494
1.1586229939423047242
1.158622993942298951
1.1586229939423366986
1.1586229939424805835
1.1586229939425598534
1.1586229939424868007
1.1586229939425287672
1.1586229939423009494
1.1586229939423018376
1.1586229939423009494
1.158622993942298729
1.1586229939423007274
1.1586229939423029478
1.1586229939423011714
1.158622993942298729
1.1586229939423027258
1.1586229939422993951
1.1586229939423025037
1.1586229939423025037
1.1586229939423025037
1.1586229939422980628
1.1586229939422996171
1.158622993942304058
1.158622993942304058
1.1586229939423020596
1.1586229939423031698
1.1586229939423042801
1.1586229939423011714
1.1586229939423013935
1.1586229939422980628
1.1586229939422980628
1.1586229939422993951
1.1586229939423033919
1.1586229939423000612
1.1586229939423013935
1.1586229939422958424
1.1586229939423022817
1.1586229939422982849
1.1586229939422993951
1.1586229939423045021
1.1586229939423000612
1.1586229939422973967
1.158622993942308943
1.1586229939422973967
1.1586229939422920676
1.1586229939423013935
1.1586229939422969526
1.1586229939423018376
1.1586229939422960644
1.1586229939423020596
1.1586229939423071666
1.1586229939422973967
1.1586229939423082769
1.1586229939422998392
1.1586229939423009494
1.1586229939423000612
1.1586229939423284829
1.1586229939424921298
1.1586229939425598534
1.1586229939424796953
1.1586229939425294333
1.1586229939423020596
1.1586229939423005053
1.1586229939423013935
1.158622993942298729
1.1586229939422985069
1.1586229939423011714
1.1586229939422980628
1.158622993942298951
1.1586229939422980628
1.1586229939422978408
1.1586229939422969526
1.1586229939422996171
1.1586229939423018376
1.1586229939423033919
1.1586229939423002833
1.1586229939423018376
1.1586229939422976187
1.1586229939423062785
1.1586229939423018376
1.158622993942298729
1.1586229939423016155
1.1586229939422962865
1.1586229939422976187
1.1586229939422962865
1.1586229939423000612
1.1586229939423005053
1.1586229939423020596
1.1586229939423000612
1.1586229939423033919
1.1586229939422958424
1.1586229939423036139
1.1586229939423033919
1.1586229939423000612
1.158622993942309165
1.1586229939422969526
1.1586229939423047242
1.158622993942294066
1.158622993942298729
1.1586229939423020596
1.1586229939422993951
1.158622993942303836
1.1586229939423009494
1.1586229939423060564
1.1586229939423009494
1.1586229939422985069