/*--------------------------------*- C++ -*----------------------------------*\
  =========                 |
  \\      /  F ield         | OpenFOAM: The Open Source CFD Toolbox
   \\    /   O peration     | Website:  https://openfoam.org
    \\  /    A nd           | Version:  12
     \\/     M anipulation  |
\*---------------------------------------------------------------------------*/
FoamFile
{
    format      ascii;
    class       volScalarField;
    location    "1e-05";
    object      T;
}
// * * * * * * * * * * * * * * * * * * * * * * * * * * * * * * * * * * * * * //

dimensions      [0 0 0 1 0 0 0];

internalField   nonuniform List<scalar> 
106891
(
299.99999100008591313
299.99999099876430364
299.99999101119243505
299.99999101272288726
299.99999100928624785
299.99999101021234083
299.99999101347827946
299.99999100522643403
299.99999097014455174
299.99999093316148446
299.99999088512515755
299.99999098748355664
299.9999910024606038
299.99999100351732295
299.99999100168969335
299.99999100252392736
299.99999100329483781
299.99999100357115367
299.99999100364203741
299.99999100366602534
299.9999910036836468
299.99999100370081351
299.99999100371780969
299.99999100373531746
299.99999100375237049
299.99999100376936667
299.9999910037868176
299.99999100380324535
299.99999100382086681
299.99999100383831774
299.99999100385576867
299.99999100387282169
299.9999910038895905
299.99999100390749618
299.99999100392489026
299.99999100394211382
299.99999100395922369
299.99999100397627672
299.99999100399480767
299.99999100401208807
299.99999100402965269
299.99999100404636465
299.99999100406614616
299.99999100415641351
299.99999100447445244
299.99999100406222396
299.99999100048790979
299.99999099762726473
299.99999102587588595
299.99999099919210721
299.99999099772696809
299.99999101083199093
299.99999101171658822
299.99999100773027294
299.99999100743787039
299.99999100863260537
299.99999100962020293
299.99999100971024291
299.99999100940982544
299.99999100888300063
299.99999100905478144
299.99999100886100223
299.99999100898321558
299.99999101067578522
299.9999910131691081
299.99999100433279864
299.99999096938188359
299.9999909317481297
299.99999087936714659
299.99999098642564377
299.99999100146163755
299.99999100216251691
299.99999100091821447
299.99999100189472756
299.99999100256184192
299.99999100277057096
299.99999100282252584
299.99999100284452425
299.99999100286129305
299.99999100287857345
299.99999100289534226
299.99999100291239529
299.99999100293018728
299.99999100294718346
299.99999100296406596
299.9999910029814032
299.99999100299891097
299.99999100301653243
299.99999100303330124
299.99999100305035427
299.99999100306763467
299.99999100308593825
299.99999100310355971
299.99999100312027167
299.99999100313755207
299.999991003155003
299.99999100317239709
299.99999100318939327
299.99999100320570733
299.99999100327499946
299.99999100362549598
299.99999100355654491
299.9999909998542762
299.99999099589132356
299.99999102472929735
299.99999099885457099
299.99999099713113537
299.99999101019693626
299.99999101080879882
299.9999910067865585
299.99999100635523064
299.99999100699767496
299.99999100799152529
299.99999100856638279
299.99999100851511002
299.99999100871571045
299.99999100882774883
299.99999100853779055
299.99999100890238424
299.99999101074052987
299.99999101328722872
299.99999100454101608
299.99999096978768875
299.99999093218394819
299.99999087860931013
299.99999098621970006
299.99999100131111618
299.99999100227739746
299.99999100076615832
299.99999100174915156
299.99999100253620554
299.99999100281189612
299.99999100288323461
299.99999100290847309
299.99999100292586718
299.99999100294354548
299.99999100296048482
299.99999100297679888
299.99999100299532984
299.99999100301175758
299.99999100302881061
299.99999100304609101
299.99999100306359878
299.99999100308065181
299.99999100309810274
299.99999100311555367
299.99999100313266354
299.99999100315045553
299.99999100316739487
299.99999100318450473
299.99999100320258094
299.99999100322003187
299.99999100323753964
299.99999100325425161
299.99999100328210488
299.99999100339931601
299.99999100363186244
299.9999910029045509
299.99999099980925621
299.99999099640302802
299.99999102453790556
299.99999099807206449
299.99999099721782159
299.99999100979908917
299.99999100992960166
299.99999100648358308
299.99999100667690755
299.99999100796378571
299.99999100873390034
299.99999100900544136
299.99999100910986272
299.99999100914862993
299.99999100918847716
299.99999100951237097
299.99999101113689903
299.99999101356837627
299.99999100483302072
299.99999097016211635
299.99999093230309199
299.99999087685500854
299.99999098631644756
299.9999910012413693
299.99999100211283576
299.99999100110392192
299.99999100211726955
299.99999100279558206
299.99999100301772614
299.99999100307468325
299.99999100309707956
299.99999100311435996
299.99999100313164035
299.99999100314892075
299.99999100316580325
299.99999100318251521
299.99999100320025036
299.99999100321764445
299.99999100323555012
299.99999100325197787
299.99999100326959933
299.9999910032867092
299.99999100330410329
299.99999100332206581
299.99999100333832303
299.9999910033562287
299.99999100337396385
299.99999100339067581
299.99999100340789937
299.99999100342654401
299.99999100350692061
299.99999100383888617
299.99999100361031878
299.99999100003464036
299.99999099639825317
299.99999102448634858
299.99999099906000311
299.99999099702938565
299.99999101021586512
299.99999101069283824
299.99999100638456184
299.99999100627013604
299.99999100773146665
299.9999910086673367
299.99999100903130511
299.99999100913714756
299.99999100918705608
299.9999910092084292
299.99999100924685536
299.99999100955767517
299.99999101117373357
299.99999101362737974
299.99999100500116356
299.9999909700071612
299.99999092916459631
299.99999088418871906
299.99999098631167271
299.99999100125330642
299.9999910023897769
299.99999100109658912
299.99999100180821188
299.9999910026298835
299.99999100297873156
299.99999100308076549
299.99999100311288203
299.99999100313254985
299.99999100314943234
299.99999100316659906
299.99999100318382261
299.99999100320115986
299.99999100321787182
299.99999100323532275
299.99999100325231893
299.99999100326999724
299.99999100328733448
299.9999910033043875
299.99999100332200896
299.99999100334002833
299.99999100335679714
299.99999100337362279
299.99999100339158531
299.99999100340880887
299.99999100342381553
299.99999100348878756
299.99999100384246731
299.99999100387350381
299.99999100031214994
299.99999099592201901
299.9999910247310595
299.99999099814613146
299.99999099683492432
299.99999101012321034
299.99999101030243764
299.99999100639757899
299.99999100655406892
299.99999100796759421
299.99999100882337189
299.99999100913476013
299.9999910092296318
299.99999100926362416
299.99999100929511542
299.99999100958967801
299.9999910111959025
299.99999101367075127
299.99999100513304029
299.99999097014085692
299.99999092790363875
299.99999088350853071
299.99999098671389675
299.99999100123983453
299.999991002312413
299.99999100114268913
299.99999100188779266
299.99999100269519658
299.99999100302244415
299.99999100311327993
299.99999100314130374
299.99999100316034628
299.99999100317711509
299.99999100319502077
299.99999100321241485
299.99999100322980894
299.99999100324663459
299.99999100326402868
299.99999100328074064
299.99999100329813473
299.99999100331558566
299.99999100333269553
299.9999910033506012
299.99999100336737001
299.99999100338521885
299.99999100340272662
299.99999100341943858
299.99999100344348335
299.99999100354546044
299.99999100381609196
299.99999100335116964
299.99999100018385434
299.99999099624136534
299.99999102456865785
299.99999099863208585
299.99999099690313642
299.99999100982751088
299.999991010691474
299.99999100667173479
299.99999100651967865
299.99999100789210615
299.99999100878898162
299.99999100912827998
299.99999100923156448
299.99999100926697793
299.99999100929710494
299.99999100958962117
299.99999101119971101
299.99999101371861343
299.99999100525508311
299.99999096903201234
299.99999092395830758
299.99999089738957991
299.99999098648351037
299.99999100143713804
299.99999100242069972
299.9999910011960651
299.99999100196396284
299.99999100274743569
299.99999100305012689
299.99999100313232248
299.99999100315875467
299.99999100317796774
299.99999100319490708
299.99999100321235801
299.99999100322952472
299.99999100324600931
299.9999910032638013
299.99999100328119539
299.99999100329807789
299.99999100331581303
299.99999100333343449
299.99999100335043067
299.99999100336759739
299.99999100338487779
299.99999100340187397
299.99999100341807434
299.99999100348861703
299.99999100383081441
299.99999100375856642
299.99999100026957422
299.99999099608828601
299.99999102440619936
299.99999099828096405
299.99999099693667404
299.99999100994301671
299.99999101043511018
299.9999910066552502
299.99999100670959251
299.9999910080398422
299.9999910088638444
299.99999100916687667
299.99999100925577977
299.99999100929511542
299.99999100958922327
299.99999101120732803
299.99999101378273281
299.99999100517123907
299.99999096681500532
299.99999092276817692
299.99999090506895527
299.99999098654922136
299.99999100163790899
299.99999100228279758
299.99999100127774909
299.99999100224016502
299.99999100289193166
299.99999100310208178
299.99999100315534406
299.99999100317666034
299.99999100319411127
299.9999910032115622
299.99999100322855838
299.99999100324606616
299.9999910032634034
299.99999100328074064
299.99999100329767998
299.99999100331530144
299.9999910033329229
299.9999910033502033
299.99999100336754054
299.9999910033838546
299.99999100339908864
299.99999100345962688
299.99999100381262451
299.9999910039314841
299.9999910004921162
299.99999099572937666
299.99999102456860101
299.99999099847173056
299.99999099695048699
299.99999100983035305
299.99999101061564488
299.9999910068098643
299.99999100649637285
299.99999100779427863
299.99999100873941416
299.99999100912503991
299.99999100924418372
299.99999100929267115
299.99999100958814324
299.99999101120999967
299.99999101381013134
299.99999100524451023
299.99999096666334708
299.99999092231684017
299.99999090662697654
299.99999098639807471
299.99999100133032925
299.99999100226813198
299.99999100145373632
299.9999910023698817
299.99999100294479604
299.99999100312652445
299.99999100317330658
299.9999910031938839
299.99999100321161905
299.9999910032288426
299.99999100324578194
299.99999100326334656
299.99999100328005852
299.99999100329802104
299.9999910033152446
299.99999100333212709
299.99999100334923696
299.99999100336697211
299.99999100338402513
299.99999100339960023
299.9999910034590016
299.99999100378181538
299.99999100387145745
299.99999100071329394
299.99999099582731787
299.99999102433258713
299.99999099841983252
299.99999099713932083
299.99999100988947021
299.99999101054652328
299.99999100683129427
299.9999910065417339
299.99999100782082451
299.99999100875857039
299.99999100914084238
299.99999100926953588
299.99999100958353893
299.99999101121113654
299.99999101383161815
299.99999100532500051
299.99999096679226795
299.99999092236987508
299.99999090680290692
299.99999098611505133
299.99999100166229482
299.99999100214301961
299.99999100092207982
299.99999100205087643
299.99999100282843756
299.99999100308690458
299.99999100315233136
299.99999100317688772
299.99999100319445233
299.99999100321173273
299.99999100322867207
299.99999100324595247
299.99999100326311918
299.99999100328062696
299.99999100329807789
299.99999100331501722
299.999991003332525
299.99999100334986224
299.99999100336674474
299.99999100338192193
299.99999100343484315
299.99999100375379157
299.99999100390658668
299.99999100083243775
299.9999909959920501
299.99999102402676954
299.99999099851294204
299.99999099698936789
299.99999100988389955
299.99999101071591667
299.99999100698317989
299.99999100654480344
299.99999100777847616
299.99999100873509406
299.99999100914726569
299.99999100955113818
299.99999101119709621
299.99999101380581124
299.99999100525405993
299.99999096667102094
299.9999909222249812
299.99999090665744461
299.99999098621827898
299.99999100142338193
299.9999910023413463
299.99999100089905824
299.99999100166513699
299.99999100259083207
299.99999100300522059
299.99999100313317513
299.99999100317324974
299.99999100319513445
299.9999910032132675
299.99999100323015
299.99999100324777146
299.99999100326505186
299.99999100328210488
299.99999100329932844
299.99999100331712043
299.99999100333434399
299.99999100335196545
299.99999100336907532
299.999991003385162
299.999991003401135
299.99999100346531122
299.99999100379966421
299.99999100384252415
299.99999100052212953
299.99999099563683558
299.99999102441688592
299.99999099867295627
299.99999099720093909
299.99999100982984146
299.99999101088360476
299.99999100715012901
299.99999100651422168
299.99999100770821769
299.99999100871519886
299.9999910094209099
299.99999101115338362
299.99999101373015264
299.99999100501764815
299.99999096621434092
299.99999092165671755
299.99999090605757601
299.99999098683468901
299.9999910011481461
299.99999100248629702
299.99999100120015783
299.99999100176978573
299.99999100260924934
299.99999100301431554
299.99999100314607858
299.99999100319024592
299.99999100321196011
299.99999100322850154
299.99999100324657775
299.99999100326527923
299.99999100328273016
299.99999100330018109
299.99999100331751833
299.99999100333485558
299.99999100335270441
299.9999910033704964
299.99999100338698099
299.99999100340176028
299.99999100346531122
299.99999100384115991
299.99999100399782037
299.99999100042208511
299.99999099532931268
299.99999102440676779
299.99999099876635
299.99999099719883588
299.99999100970796917
299.99999101094829257
299.99999100718463296
299.9999910064440769
299.99999100762164517
299.9999910088794195
299.99999101090412523
299.99999101360066334
299.99999100500042459
299.99999096627141171
299.99999092158407166
299.99999090626857878
299.99999098665233532
299.99999100132441754
299.99999100272424357
299.99999100131401519
299.99999100174704836
299.99999100260049545
299.99999100299106658
299.99999100313061717
299.99999100318837009
299.99999100321838341
299.9999910032404955
299.99999100326294865
299.99999100328165014
299.99999100329824842
299.99999100331660884
299.9999910033355377
299.99999100335372759
299.99999100337146274
299.99999100338789049
299.99999100340312452
299.99999100345803527
299.99999100380534856
299.99999100404221508
299.99999100081322467
299.99999099529412661
299.99999102426374975
299.99999099941777558
299.99999099749061315
299.99999101011081848
299.9999910113600663
299.99999100745208125
299.99999100692599541
299.99999100824732068
299.99999101061598594
299.99999101348976183
299.99999100491322679
299.99999096587737313
299.99999092135152523
299.99999090862922912
299.99999098669928799
299.99999100130389706
299.99999100277142361
299.99999100130872876
299.99999100175597277
299.99999100258418139
299.99999100298492749
299.99999100309662481
299.99999100315574196
299.99999100316938438
299.99999100321178958
299.99999100325567269
299.99999100328466284
299.99999100330734336
299.99999100333059232
299.99999100335173807
299.9999910033708943
299.99999100338771996
299.99999100340301084
299.99999100345803527
299.99999100380455275
299.99999100405045738
299.99999100084568227
299.9999909953093038
299.99999102427238995
299.99999099936241009
299.99999099793222967
299.9999910106901666
299.99999101204559793
299.99999100836953403
299.99999100817200315
299.99999101070346796
299.99999101382712752
299.99999100463008972
299.99999096455707104
299.99999092863845362
299.99999090963081017
299.99999098732212133
299.99999100130736451
299.99999100251278605
299.99999100135215713
299.99999100192945889
299.99999100226852988
299.99999100271992347
299.9999910029977741
299.99999100309071309
299.99999100314403222
299.99999100316858858
299.99999100321775813
299.99999100323395851
299.99999100328307122
299.99999100333451452
299.99999100336589208
299.99999100338573044
299.99999100340147606
299.99999100345593206
299.99999100380244954
299.9999910040468194
299.99999100085216241
299.99999099532902846
299.99999102427034359
299.99999098722594226
299.99999100255519124
299.99999100333928936
299.9999910018399305
299.99999100151671882
299.99999100202666114
299.99999100266239793
299.99999100275630326
299.99999100253324968
299.9999910027892156
299.99999100299635302
299.99999100308411926
299.99999100313590361
299.99999100324373558
299.99999100331700674
299.99999100335196545
299.99999100337004165
299.99999100342580505
299.99999100377226569
299.99999100401601027
299.99999100082317227
299.99999099530566582
299.99999102425636011
299.99999098748781989
299.99999100262516549
299.99999100418523312
299.9999910030276169
299.99999100263323726
299.99999100290432352
299.99999100210891356
299.99999100224437143
299.99999100275829278
299.99999100289210219
299.99999100260515661
299.99999100290227716
299.99999100317762668
299.99999100328682289
299.99999100332291846
299.99999100338112612
299.99999100372770044
299.99999100396883023
299.99999100077184266
299.99999099528781699
299.99999102431621623
299.99999098782950568
299.99999100288960108
299.99999100454527934
299.99999100254285622
299.99999100207867286
299.99999100273453223
299.99999100254404993
299.99999100221759818
299.99999100264591334
299.99999100294206755
299.99999100304205513
299.99999100311413258
299.99999100346138903
299.99999100369768712
299.99999100051627465
299.99999099515764556
299.99999102424681041
299.99999098797979968
299.99999100189239698
299.99999100367170968
299.99999100178865774
299.99999100213977954
299.99999100270679264
299.99999100294303389
299.99999100304728472
299.99999100338351354
299.99999100355648807
299.99999100049586787
299.99999099595424923
299.99999102474907886
299.99999098820018162
299.99999100295815424
299.99999100495716675
299.99999100340357927
299.99999100375856642
299.99999100417284126
299.99999100436542676
299.99999100469881341
299.99999100487491432
299.99999100223317328
299.99999099794939639
299.99999102574429344
299.99999517576702601
299.99999518765355333
299.999995189775575
299.99999518813916666
299.99999518693192613
299.99999518579454616
299.99999518461180514
299.99999518340848681
299.99999518220278105
299.99999518099798479
299.99999517979563279
299.99999517859441767
299.99999517739513522
299.9999951761964212
299.99999517500685897
299.9999951738940922
299.99999517274369509
299.99999517072689059
299.99999516723812576
299.99999518649229913
300.00000562096550993
300.00000562530550496
300.00000562387805303
300.00000561749891403
300.00000561242319463
300.00000560776015845
300.00000560301543828
300.00000559821444313
300.00000559340492146
300.00000558859852617
300.00000558379923632
300.00000557900602871
300.00000557421856229
300.0000055694403045
300.00000556466795842
300.00000555990357043
300.00000555517436851
300.00000555049660989
300.00000554532039132
300.00000553995283781
300.0000055347748571
300.00000555225921062
300.00003937852574154
300.00003936811020822
300.00003934901093317
300.00003933006263424
300.00003930948503239
300.0000392882176925
300.0000392688126567
300.00003924961202983
300.00003923026451957
300.00003921086982928
300.00003919148923615
300.00003917213251725
300.00003915280160527
300.00003913349706863
300.00003911422288638
300.00003909497468157
300.0000390757533637
300.00003905655785275
300.00003903741935574
300.00003901840494791
300.00003899898649706
300.00003897817964571
300.0000389617139831
300.00003894359474543
300.000038925000581
300.00003892579860576
300.00010988639121479
300.00010977443361071
300.00010971034441809
300.00010965064592483
300.0001095946845453
300.00010953616123288
300.00010947939119887
300.00010942357596377
300.00010936762396341
300.00010931158067251
300.00010925556836128
300.00010919962801381
300.00010914376184701
300.000109087968724
300.00010903225199854
300.0001089766150244
300.00010892105700577
300.00010886557259937
300.00010881016277153
300.00010875483934569
300.00010869964461335
300.00010864441878766
300.00010858820911608
300.00010853284589984
300.00010848094291305
300.00010842547027323
300.00010837106475492
300.00010833593159987
300.00023222366121445
300.00023192351574153
300.00023157898084492
300.00023138563551584
300.00023123243050804
300.00023108476040079
300.00023093718704104
300.00023079128027348
300.00023064565363029
300.00023049991312973
300.00023035425135731
300.00023020876881219
300.00023006349141497
300.00022991841450448
300.0002297735341017
300.00022962885577726
300.00022948439021775
300.00022934013105669
300.00022919606982441
300.00022905220913572
300.00022890855251489
300.00022876513116898
300.00022862191957529
300.00022847822521044
300.00022833416949197
300.00022819316660616
300.00022805025537309
300.00022791125257982
300.00022776717668194
300.00022764568717548
300.00035891337370231
300.00036054765462268
300.00035986539035093
300.00035903327386677
300.00035862226502559
300.0003583269730143
300.00035804548434726
300.00035776603084514
300.00035748752952713
300.00035720907669656
300.00035693075699328
300.00035665274873509
300.00035637511120967
300.00035609785294355
300.00035582096569442
300.00035554444269792
300.00035526829651644
300.00035499253613125
300.00035471715597168
300.00035444214506697
300.00035416750239392
300.00035389323289792
300.00035361935107403
300.00035334586971203
300.00035307248236904
300.00035279865278426
300.00035252617436754
300.00035225390547566
300.00035198191517338
300.00035171427083469
300.00035144159079437
300.00035120091314411
300.00047094216455434
300.00047402721224898
300.0004728084566068
300.00047127661332524
300.00047056207898777
300.00047007186503834
300.00046961064754214
300.00046915340976739
300.00046869693687768
300.00046824074775031
300.00046778503349287
300.00046732991791032
300.0004668754307886
300.0004664215723551
300.00046596833118429
300.00046551569960229
300.00046506369341159
300.00046461232426509
300.0004641615828973
300.0004637114587922
300.00046326194484436
300.00046281304923923
300.00046236478357287
300.00046191715858868
300.00046147005286912
300.00046102297557127
300.00046057656572884
300.00046013093782449
300.00045968453423484
300.00045924196518854
300.00045880305714263
300.0004583758839658
300.00045796168581091
300.00055708188426706
300.00055430755531916
300.00055181729351261
300.00055088678880111
300.00054969895489876
300.00054415735110069
300.00051831642440447
300.00052450561139494
300.00052211305870742
300.00051950056422356
300.00051848349494321
300.00051785924904379
300.00051728737696521
300.00051672321069418
300.00051616006595623
300.00051559746100338
300.00051503556437638
300.00051447444155883
300.00051391410738688
300.00051335455697199
300.00051279577354535
300.00051223775164999
300.00051168050856631
300.00051112405679987
300.00051056839026842
300.00051001349106627
300.00050945935214486
300.00050890598498654
300.00050835339607147
300.00050780159210717
300.00050725053222322
300.00050669994726604
300.00050614983592823
300.000505600588383
300.00050505073107843
300.00050450218208198
300.00050395900626654
300.00050345046679467
300.00050284570289705
300.00050137321812826
300.0076003066687349
300.00761168693952641
300.00760260375432154
300.00759269138291074
300.0075851244452565
300.00757706923906198
300.00756437808030341
300.00722240693124832
300.00723413388931249
300.00722610027611381
300.00721647863690578
300.00720928519064046
300.00720263465291282
300.00719605982789062
300.00718950394872309
300.00718295758599652
300.0071764200044413
300.00716989135679569
300.00716337170365478
300.00715686098652668
300.00715035924758922
300.00714386644790466
300.00713738253398333
300.00713090751798973
300.00712444140344815
300.00711798421997401
300.00711153590634694
300.00710509642232182
300.00709866580746166
300.00709224400810626
300.00708583106376182
300.00707942694486974
300.00707303146833738
300.0070666443982077
300.00706026614284383
300.00705389546845936
300.00704753249777923
300.00704118352206251
300.00703489177351457
300.00702843349517934
300.00702063498061989
300.00700913812534054
299.99999999983458565
299.99999999983464249
299.99999999983475618
299.99999999983486987
299.99999999983435828
299.99999999983356247
299.99999999983901944
299.99999999985516297
299.99999999986169996
299.9999999998514113
299.99999999985089971
299.99999999983475618
299.99999999983407406
299.99999999983452881
299.99999999983418775
299.99999999983441512
299.99999999983492671
299.99999999983464249
299.99999999983469934
299.99999999983424459
299.99999999983390353
299.99999999983492671
299.99999999983538146
299.99999999983447196
299.99999999983367616
299.99999999983441512
299.99999999983538146
299.99999999983498356
299.99999999983521093
299.99999999983447196
299.99999999983407406
299.99999999983430143
299.99999999983447196
299.99999999983344878
299.99999999983555199
299.99999999983600674
299.99999999983401722
299.99999999983452881
299.99999999983418775
299.99999999983447196
299.99999999983475618
299.99999999983475618
299.99999999983475618
299.99999999983492671
299.9999999998341309
299.999999999833733
299.99999999983424459
299.99999999983407406
299.99999999983555199
299.99999999983583621
299.99999999983447196
299.99999999983515409
299.99999999983407406
299.99999999983361931
299.99999999983521093
299.99999999983367616
299.99999999983538146
299.99999999983452881
299.99999999983538146
299.99999999983481302
299.99999999983378984
299.99999999983606358
299.99999999983344878
299.99999999983879206
299.99999999985453769
299.99999999986198418
299.99999999985089971
299.99999999985016075
299.99999999983464249
299.99999999983469934
299.99999999983464249
299.99999999983509724
299.99999999983430143
299.99999999983430143
299.99999999983458565
299.99999999983441512
299.99999999983492671
299.99999999983396037
299.99999999983492671
299.99999999983498356
299.99999999983486987
299.99999999983452881
299.99999999983441512
299.9999999998350404
299.99999999983390353
299.99999999983458565
299.99999999983498356
299.99999999983469934
299.99999999983498356
299.9999999998341309
299.99999999983441512
299.99999999983458565
299.99999999983475618
299.99999999983458565
299.99999999983475618
299.99999999983464249
299.9999999998350404
299.99999999983452881
299.99999999983469934
299.99999999983475618
299.99999999983486987
299.99999999983441512
299.99999999983430143
299.99999999983396037
299.99999999983538146
299.99999999983526777
299.99999999983572252
299.99999999983430143
299.9999999998350404
299.99999999983390353
299.99999999983396037
299.99999999983532462
299.99999999983452881
299.99999999983492671
299.99999999983407406
299.99999999983509724
299.99999999983469934
299.99999999983424459
299.99999999983458565
299.99999999983356247
299.9999999998393605
299.99999999985419663
299.99999999986152943
299.99999999985112709
299.99999999985084287
299.99999999983492671
299.99999999983475618
299.99999999983441512
299.99999999983509724
299.99999999983452881
299.99999999983384669
299.99999999983481302
299.99999999983486987
299.99999999983509724
299.99999999983464249
299.99999999983441512
299.99999999983475618
299.99999999983447196
299.99999999983452881
299.99999999983475618
299.99999999983384669
299.99999999983441512
299.99999999983458565
299.99999999983515409
299.99999999983475618
299.99999999983390353
299.99999999983418775
299.9999999998354383
299.99999999983475618
299.99999999983384669
299.9999999998350404
299.99999999983435828
299.99999999983452881
299.99999999983464249
299.99999999983492671
299.99999999983441512
299.99999999983401722
299.99999999983452881
299.99999999983441512
299.99999999983549515
299.99999999983612042
299.99999999983458565
299.99999999983486987
299.99999999983447196
299.99999999983452881
299.99999999983481302
299.99999999983577936
299.99999999983384669
299.99999999983526777
299.99999999983464249
299.99999999983452881
299.99999999983486987
299.99999999983401722
299.99999999983356247
299.99999999983856469
299.99999999985419663
299.99999999986181365
299.99999999985095656
299.99999999985118393
299.99999999983430143
299.9999999998341309
299.9999999998350404
299.99999999983521093
299.99999999983435828
299.99999999983401722
299.99999999983486987
299.99999999983475618
299.99999999983452881
299.99999999983458565
299.99999999983430143
299.99999999983418775
299.99999999983498356
299.99999999983515409
299.99999999983458565
299.99999999983401722
299.99999999983407406
299.99999999983435828
299.99999999983521093
299.99999999983469934
299.99999999983441512
299.99999999983396037
299.99999999983486987
299.99999999983560883
299.99999999983481302
299.99999999983424459
299.99999999983418775
299.9999999998341309
299.99999999983521093
299.99999999983498356
299.99999999983469934
299.9999999998341309
299.99999999983447196
299.9999999998350404
299.99999999983418775
299.99999999983555199
299.99999999983464249
299.99999999983435828
299.99999999983521093
299.999999999833733
299.9999999998354383
299.99999999983469934
299.99999999983452881
299.99999999983566568
299.99999999983407406
299.99999999983481302
299.99999999983475618
299.99999999983390353
299.99999999983435828
299.99999999983799626
299.99999999985459453
299.9999999998613589
299.99999999985112709
299.9999999998506155
299.99999999983447196
299.99999999983441512
299.99999999983401722
299.9999999998350404
299.9999999998350404
299.99999999983441512
299.99999999983481302
299.99999999983447196
299.99999999983486987
299.99999999983458565
299.99999999983521093
299.99999999983515409
299.99999999983441512
299.99999999983424459
299.99999999983452881
299.99999999983475618
299.99999999983418775
299.99999999983481302
299.99999999983492671
299.99999999983492671
299.99999999983458565
299.99999999983526777
299.99999999983418775
299.99999999983464249
299.99999999983526777
299.99999999983458565
299.99999999983430143
299.9999999998350404
299.99999999983418775
299.99999999983481302
299.99999999983424459
299.99999999983486987
299.99999999983464249
299.99999999983498356
299.99999999983407406
299.99999999983498356
299.99999999983378984
299.99999999983430143
299.99999999983515409
299.99999999983475618
299.99999999983475618
299.99999999983526777
299.99999999983538146
299.99999999983464249
299.99999999983435828