/*--------------------------------*- C++ -*----------------------------------*\
  =========                 |
  \\      /  F ield         | OpenFOAM: The Open Source CFD Toolbox
   \\    /   O peration     | Website:  https://openfoam.org
    \\  /    A nd           | Version:  12
     \\/     M anipulation  |
\*---------------------------------------------------------------------------*/
FoamFile
{
    format      ascii;
    class       volScalarField;
    location    "0.0061";
    object      p_0;
}
// * * * * * * * * * * * * * * * * * * * * * * * * * * * * * * * * * * * * * //

dimensions      [1 -1 -2 0 0 0 0];

internalField   nonuniform List<scalar> 
75962
(
99867.665037896571448
99560.305848136034911
99508.472120276463102
99665.576706309861038
99573.109746289177565
99447.005547105465666
99393.892445225792471
99406.51063210045686
99446.7939898432669
99479.317023258612608
99485.666672534454847
99447.099146112857852
99471.796200204786146
99579.719738117841189
99638.083856869576266
99570.832584545685677
99427.212057319251471
99293.132465253860573
99249.031298523128498
99303.58120672381483
99355.936371193238301
99327.791934083506931
99287.059993272778229
99336.081451340534841
99444.527102124251542
99494.525147048567305
99447.817052470025374
99379.035769118505414
99347.112743401215994
99330.03395870764507
99306.437371132371482
99304.569193478833768
99326.504122829108383
99342.943923107275623
99346.086407527851406
99340.303944662562571
99315.607505424661213
99292.690903419657843
99300.747654847058584
99321.497196057811379
99303.505201452819165
99262.959499335309374
99254.384147699733148
99277.897716641615261
99286.265076809781021
99266.584902142145438
99255.373118325689575
99279.932786695397226
99306.578540804548538
99296.590919562528143
99257.807689591078088
99222.597731956062489
99212.176066682208329
99229.435009771055775
99265.27872450601717
99299.518373801649432
99310.398219989991048
99301.651161684450926
99279.249206018124823
99246.203305443399586
99208.441744483046932
99181.817117510014214
99187.607009951869259
99218.982025195931783
99237.67389729830029
99225.942044671595795
99209.043886072322493
99219.375579214218305
99256.10510289191734
99291.619051009125542
99306.402313362938003
99301.27266970135679
99286.04354964880622
99268.914875417991425
99256.100922939222073
99254.280743722978514
99267.786310816649348
99288.485079636549926
99302.991404586471617
99299.860903993016109
99279.543438962034998
99249.339465229204507
99216.915866987154004
99189.284322482126299
99169.554840494660311
99154.900943375308998
99141.493229463812895
99127.924948925239732
99113.61164797055244
99096.004831893616938
99077.059499170820345
99064.27581525365531
99068.950135089457035
99094.901405533208163
99130.212667583473376
99157.236145517585101
99168.57487051555654
99169.68841975054238
99166.686324246475124
99158.400898268562742
99139.472752373447292
99110.406733389303554
99083.402357154584024
99074.459662373992614
99085.575940436101519
99098.735621168874786
99091.956080551433843
99060.252519849818782
99022.605045331496513
99006.668420546207926
99024.78589343544445
99061.95517447241582
99091.27958787130774
99095.605604040043545
99080.606137145412504
99065.704383981486899
99066.333547444199212
99084.705031896461151
99110.002331782845431
99129.792973350035027
99136.861233279778389
99131.524925966019509
99118.777610993871349
99107.379939038379234
99105.908326792094158
99117.811775392896379
99140.706779797445051
99167.515117432092666
99192.220230350314523
99211.126698614782072
99221.540237457753392
99222.000572310716962
99212.095089780894341
99191.44518693748978
99161.001327919046162
99124.047913747344865
99089.390488603632548
99068.615016163079417
99069.881106279848609
99090.233065387161332
99118.975106950572808
99146.073378041619435
99169.357430274176295
99192.140534050908173
99218.193356602743734
99247.12494043946208
99273.879115064628422
99291.352282803141861
99295.379613452110789
99287.386987404577667
99274.231449233120657
99265.51504984193889
99269.320934401272098
99288.281399226456415
99317.540447668536217
99346.694821229481022
99365.84059618646279
99371.558049116967595
99369.072059387588524
99368.826990226443741
99378.922563214568072
99398.730618268440594
99418.829120063848677
99427.283442284329794
99418.639555694986484
99397.921154352923622
99376.417588615615387
99363.633545251126634
99361.954227119698771
99366.276273803712684
99369.088762159153703
99366.021212349107373
99357.3969021980447
99346.618228978681145
99337.884350134991109
99334.617868084911606
99338.987468410341535
99350.454269891037256
99365.398915309124277
99378.246648867323529
99383.896785647637444
99380.905486553558148
99372.707738284108927
99365.429964127179119
99363.910147495189449
99368.781621013113181
99376.173192764283158
99380.071078853041399
99082.767561224085512
99068.735862570669269
99066.551115705107804
99071.651931634711218
99078.292124692365178
99083.216980911936844
99087.201718999524019
99093.252700566416024
99103.312677186215296
99115.830073441116838
99126.158541352167958
99129.302771193353692
99123.099080011350452
99109.150164214705001
99091.501509743204224
99073.963152295938926
99058.067999998354935
99042.746405710611725
99025.723703287992976
99005.448678525412106
98982.182851139892591
98957.563291900674812
98933.09950455831131
98909.241206120554125
98885.959030227924814
98863.95935264347645
98845.502077399840346
98834.103768325949204
98832.827964173789951
98841.891859424184076
98857.438675649682409
98872.500851497883559
98879.982153336153715
98876.043884127851925
98861.970278322027298
98843.231917848534067
98826.508124854764901
98816.191313073824858
98812.56618646455172
98812.390793492770172
98810.975872798968339
98804.851327117561596
98793.58947441111377
98779.638546852933359
98767.127574440339231
98760.273806791534298
98761.985158090872574
98772.850163830968086
98790.662910299506621
98811.000423380624852
98828.548400732615846
98838.936765146645484
98840.257752987541608
98833.560092999832705
98822.110906664049253
98809.975938428804511
98800.598784242451075
98796.062069569263258
98797.382894534224761
98805.221411879028892
98820.226331273996038
98842.457195522089023
98870.525357567647006
98900.896350178823923
98928.309214407490799
98947.573503156396328
98955.78290513533284
98953.508361107640667
98944.257365863639279
98932.60148111145827
98922.337716603113222
98915.43743012813502
98912.292606671675458
98912.71507037919946
98916.941409535735147
98925.850557682322687
98940.115692853898508
98958.830660554915085
98978.791743666588445
98995.025799247101531
99002.520901821553707
98998.296996703604236
98982.780282270527096
98959.813983457686845
98935.458512093493482
98916.002184218916227
98906.165693533970625
98907.700162780995015
98919.148986744956346
98936.93920701200841
98956.896103394945385
98975.437440024805255
98990.530691350679263
99001.76528557293932
99009.644442987060756
99014.722258166220854
99017.181101053909515
99016.723743059803382
99012.713852556640632
99005.033650205426966
98994.365707750082947
98982.175864549790276
98970.523180302770925
98961.220308925636346
98955.267357365621137
98952.548131192583241
98951.94651212732424
98951.960669648266048
98951.245861999210319
98949.111817251250613
98945.61268392050988
98941.276163808361162
98936.591255624371115
98931.992251902396674
98927.936438081218512
98924.806278847754584
98922.862137831296423
98922.031658398598665
98921.868787921179319
98921.289842961719842
98918.735634295589989
98912.852323793311371
98903.007324926118599
98889.9290597778745
98875.426591559647932
98861.986968579352833
98852.092137320025358
98847.420324959399295
98848.726249960280256
98855.637040431669448
98866.926225517963758
98880.79556022543693
98895.371774243380059
98908.971572694994393
98920.165607425078633
98927.9752392340597
98932.016623602816253
98932.720011024866835
98931.217002542281989
98929.005351065439754
98927.526873185721342
98927.681218844387331
98929.501986223171116
98932.343238026223844
98935.077183597124531
98936.512522242104751
98935.831418565125205
98933.118850764614763
98929.28507303148217
98925.756310191514785
98923.84195445489604
98924.278243569482584
98927.188959344028262
98932.344112838924048
98939.522095276755863
98948.689956865506247
98959.985997819836484
98973.502277827559737
98988.983452643689816
99005.625762125084293
99022.163726391270757
99037.069889390710159
99048.997423051216174
99057.148429897613823
99061.537128730793484
99062.914062989133527
99062.531194077717373
99061.811962292340468
99062.030306244996609
99064.046529961124179
99068.287946984957671
99074.75883831246756
99083.051543535562814
99092.529386803842499
99102.222376575286034
99111.042401358368807
99117.708522434782935
99121.036722337055835
99120.23630311130546
99115.21715237191529
99106.765532530815108
99096.289360591734294
99085.506846074567875
99076.034291790012503
99068.939437954191817
99064.471926511265337
99062.142142749522463
99061.029317303808057
99060.257925807032734
99059.311400462582242
99058.011661413358524
99056.39193983100995
99054.441295569456997
99052.028563673782628
99048.945276778991683
99045.055602466498385
99040.395304621604737
99035.30541102605639
99030.650668113768916
99027.663546408104594
99027.627747703765635
99031.454996699932963
99039.424454970649094
99050.964946405423689
99064.737129382163403
99078.93143253980088
99091.80322212264582
99102.14417736903124
99109.615473433339503
99114.802746138273505
99118.821356105632731
99122.802651119302027
99127.353319421541528
99132.329558076919056
99136.889678513631225
99139.735840750829084
99139.566575614458998
99135.571759489364922
99127.738077359259478
99116.82924349316454
99104.204826670626062
99091.462562063607038
99079.904235362497275
99070.263807707946398
99062.746324487568927
99057.142161414914881
99052.972745442370069
99049.545548121765023
99046.090208402936696
99042.095495544825098
99037.390953449037625
99031.934292606747476
99025.729920127967489
99018.893229358727694
99011.614887215386261
99003.969813203191734
98995.928468475292902
98987.639189647248713
98979.491723484665272
98971.88165051676333
98965.137711803399725
98959.705977280405932
98956.049037200427847
98954.406126371148275
98954.75436247237667
98956.877608848095406
98960.508039229665883
98965.385291635015165
98971.210745703356224
98977.645925681834342
98984.352348428423284
98990.975217068233178
98997.036055601449334
99001.879119786797673
99399.134194819183904
99502.367854483891279
99642.873539260675898
99878.129808433237486
99675.693529369222233
99299.933371951745357
99174.83396193633962
99296.881796410554671
99400.125605187029578
99415.633854915125994
99410.347485976570169
99403.819298178670579
99475.246079916745657
99612.057029010728002
99658.155602585698944
99562.601188698317856
99396.660815418203129
99265.893363785042311
99246.549055066556321
99330.490334373374935
99371.161998080147896
99302.045813435266609
99233.517387516301824
99288.079510256880894
99434.480946550465887
99529.782805796683533
99505.409003347667749
99429.573677766195033
99387.212918167570024
99368.374106232862687
99345.459357855201233
99328.48274095945817
99318.740137673492427
99312.498072781789233
99320.486597817274742
99338.172485474089626
99332.915700687619392
99308.100055133210844
99300.874936645166599
99309.750960865640081
99300.048724871798186
99276.198525341940694
99274.421846336539602
99294.832754589835531
99294.632410554142552
99264.917459854332265
99255.118644166519516
99284.382339313830016
99308.047277092337026
99290.813329475393402
99253.012321236077696
99230.948626726763905
99226.530176935426425
99227.595062913358561
99237.653580931364559
99263.36774361791322
99283.925247681239853
99275.771881895052502
99240.73597221635282
99202.634860254256637
99177.79858359854552
99175.324055927660083
99194.502691704255994
99214.877471181418514
99214.486086257587885
99198.86194786222768
99191.241691949559026
99213.046681485589943
99258.498597216646885
99296.762773685739376
99307.049383095887606
99294.036841561668552
99273.927713578508701
99260.690071525721578
99260.928772187471623
99277.697305295121623
99305.400674205942778
99329.324239139954443
99330.760260454146191
99304.942686759968637
99261.49703476173454
99218.253604237717809
99189.521495120701729
99177.407459550464409
99172.530544711873517
99164.6045078724419
99152.224205913618789
99139.05176276768907
99124.84552991054079
99105.377871596894693
99081.318693800902111
99064.705012118836748
99069.61194830625027
99100.60431431842153
99139.529931938479422
99164.958215407648822
99169.29261987603968
99160.150686847278848
99149.082969462775509
99139.037107739175553
99125.618488230305957
99106.5791251808987
99090.54560148974997
99089.66095413696894
99104.091140739954426
99117.556175967081799
99112.817432119118166
99088.727748811405036
99061.105598380527226
99048.025090355600696
99055.735361026163446
99074.920226283618831
99092.038205019634916
99097.868313261918956
99094.031277062415029
99088.98229250474833
99091.312640545715112
99105.840240213161451
99130.104451428778702
99155.999157216763706
99173.650697186953039
99177.751621929943212
99170.880138651540619
99161.775094384211116
99158.700741965236375
99164.888997932328493
99177.540771493848297
99193.435516866185935
99211.425501770718256
99228.315186772393645
99238.535250524233561
99236.232590238549164
99219.643934039428132
99192.363495626530494
99159.103067201605882
99125.966076664684806
99099.759444455441553
99090.215122850931948
99100.764963488283684
99125.419657196864136
99152.674239439729718
99175.184017320469138
99192.500805174669949
99210.524579627148341
99233.830004503004602
99261.297825439498411
99286.844245326356031
99303.670358378440142
99308.213516471892945
99302.86462843643676
99293.835798463129322
99288.543960314826109
99292.34170508821262
99306.803596189143718
99328.39540379801474
99349.216221894981572
99361.734134594429634
99364.192038004213828
99362.829576686170185
99368.017243255366338
99386.310669974584016
99414.227804317575647
99440.079714083418366
99451.893784785585012
99445.852333543283748
99428.336970554155414
99410.180375214156811
99398.717351920131478
99394.650028909294633
99393.15358417245443
99388.259145102172624
99377.516803740450996
99362.578023302470683
99347.420008047221927
99336.708292401890503
99334.243545537785394
99342.107247966778232
99359.350230923329946
99380.97046943778696
99399.966125683989958
99410.605987623348483
99411.090059051115531
99404.605423428438371
99397.044480504308012
99393.370039608053048
99394.469137052903534
99397.12496977126284
99396.135109267241205
99387.987698603217723
99082.108787714649225
99060.078375510594924
99047.857470195784117
99043.866593219732749
99044.042216701767757
99044.982999546220526
99046.09833070768218
99049.369536946178414
99057.442835112145985
99070.981762544484809
99087.153941738288268
99100.719345711302594
99106.849240244962857
99103.629101837213966
99092.418884816142963
99076.421038433662034
99058.645627751073334
99040.492396508998354
99021.675687991300947
99001.486632614236441
98979.73641858449264
98956.964088539622026
98933.705816993417102
98909.828621580862091
98884.888080515534966
98859.078849902900402
98834.335420926625375
98814.711609343066812
98805.034307452762732
98808.481433011853369
98824.146561291418038
98846.42077529123344
98866.758337400868186
98877.218164753954625
98873.974024696202832
98858.798782953745103
98837.879228243749822
98818.501331632098299
98805.675640411544009
98800.401070689447806
98799.950221104605589
98799.928884187160293
98797.023102550680051
98790.453458670323016
98782.091848395371926
98775.409282678214367
98773.837436020417954
98779.61799683389836
98792.855554305278929
98811.076737537703593
98830.095859802240739
98845.249553786328761
98852.750381374135031
98851.071810601119068
98841.404505082871765
98826.881610640150029
98811.561562895847601
98799.350021362683037
98793.213572515989654
98794.876180436258437
98805.096420290748938
98823.751016371519654
98849.581300577468937
98879.86613700655289
98910.463910106976982
98936.612442708894378
98954.380544478830416
98962.188956123922253
98961.45430442529323
98955.516478944846313
98947.798820360738318
98940.600392048523645
98934.831210326432483
98930.778004334686557
98929.144483399548335
98931.523287254662137
98939.828660304512596
98954.873358961413032
98975.02060846753011
98995.935096728630015
99011.878072294770391
99017.873708444618387
99011.859512696915772
98995.581698367910576
98973.970623674264061
98953.363957401816151
98939.53836158014019
98935.941536045196699
98942.865298069373239
98957.732492585928412
98976.441901958693052
98994.891952276171651
99010.577039072013577
99022.840998364903498
99032.480955288105179
99040.621349067339906
99047.823830187291605
99053.572239441025886
99056.786144936049823
99056.374942076334264
99051.86461679211061
99043.89260475950141
99034.2852046945045
99025.274706133946893
99018.659704729303485
99015.220957689816714
99014.33836924136267
99014.500540148394066
99013.850668595943716
99011.086118677558261
99005.760097472462803
98998.255472636155901
98989.454825623382931
98980.298058816071716
98971.386797186438343
98963.29071210953407
98956.516426567846793
98951.395988108051824
98948.123477749832091
98946.468883649416966
98945.613955471664667
98944.218371568640578
98940.821272007291554
98934.452117654422182
98925.101981078827521
98913.959266806094092
98903.107664254770498
98894.71828175864357
98890.592661888469593
98891.49214701182791
98897.188303527218523
98906.541674428342958
98917.86449853918748
98929.335888236630126
98939.384631407287088
98946.761372694934835
98950.961583552416414
98952.036408490210306
98950.679129801224917
98948.098033294852939
98945.617424223848502
98944.373871118019451
98944.894865749258315
98946.869980746458168
98949.394393067501369
98951.307981724006822
98951.499101292502019
98949.383447140164208
98945.156232198642101
98939.856181870403816
98934.946904578304384
98931.767186252356623
98931.051660315453773
98932.887763341714162
98937.007772166078212
98943.177598096284783
98951.39285196083074
98961.799099641400971
98974.531467489927309
98989.393136359140044
99005.507302468162379
99021.405638674026704
99035.443997980677523
99046.35513353101851
99053.604477319910075
99057.596403060044395
99059.490307886022492
99060.727972946609952
99062.559661818522727
99065.71345409474452
99070.311034453523462
99076.032563285232754
99082.337061580634327
99088.721982105416828
99094.754841699876124
99100.060244598178542
99104.249567549559288
99106.732075093168532
99106.886508738636621
99104.130161471868632
99098.370136604411528
99090.074225075819413
99080.278559977363329
99070.209877998495358
99061.023096841294318
99053.520479300263105
99047.942537668597652
99044.035505182415363
99041.350810644958983
99039.444519197175396
99038.210112464468693
99037.731761599876336
99038.114022680121707
99039.12504855071893
99040.09766968069016
99040.163528105229489
99038.629299448162783
99035.353202763944864
99030.846571582325851
99026.300416120444424
99023.419001622707583
99023.878478417886072
99028.720230951119447
99038.056049304374028
99051.004980544239515
99065.913972756839939
99080.817047969729174
99093.974475148948841
99104.382779666266288
99112.019279275467852
99117.724367536968202
99122.837848798313644
99128.606997142458567
99135.665639769926202
99143.739681985025527
99151.696502565682749
99157.914786584224203
99160.745444487896748
99159.053482606133912
99152.644571636876208
99142.295739888111711
99129.479435327724786
99115.997249520019977
99103.483160344636417
99092.975061255274341
99084.853641184905428
99078.905373419416719
99074.539422825531801
99071.036101224715821
99067.630321035627276
99063.664991487705265
99058.833322723046876
99053.135184860715526
99046.648783894401276
99039.418216084712185
99031.53167201600445
99023.14687811647309
99014.311469797248719
99005.010533682187088
98995.465646951575764
98986.148457771443645
98977.514164086445817
98969.958825502471882
98963.934732285546488
98959.848523724125698
98957.941603184575797
98958.286232692567864
98960.83519503386924
98965.514946765411878
98972.215851016502711
98980.670043058649753
98990.378615676090703
99000.643795050491462
99010.626312911976129
99019.364302250367473
99581.643945934134535
99543.965144603178487
99361.273208761194837
99354.39825527992798
99407.861317715301993
99307.103192607304663
99236.103025653006625
99333.75964264725917
99425.382402757531963
99412.116696398705244
99362.328415343174129
99358.414164217101643
99442.997737623532885
99554.009722763003083
99581.128956804517657
99499.821705247828504
99363.65485629667819
99257.649555350246374
99278.880066009383881
99387.198600748975878
99429.494489904129296
99359.20196398178814
99281.237677774945041
99305.939989954655175
99425.881139979654108
99520.225646784092532
99517.752135020913556
99465.455789850951987
99419.152222528238781
99385.359082246111939
99356.279731335336692
99327.763085226819385
99294.743742817372549
99272.211106425456819
99291.67735428189917
99339.336051712583867
99355.601543159034918
99320.436884999449831
99282.456571114045801
99275.459108288792777
99281.107524074584944
99277.305942045873962
99272.699650937211118
99270.645986609699321
99259.820064110972453
99243.301485685413354
99250.729833742007031
99279.23059659282444
99290.329729264078196
99270.620126075140433
99245.903529409712064
99236.423628267250024
99229.706022209356888
99215.832902237045346
99214.506616405109526
99237.176659051809111
99255.623118426738074
99237.380204748449614
99195.21584260633972
99162.978977043385385
99157.601220213589841
99171.797132106337813
99184.99173724281718
99188.759469319731579
99186.288246189273195
99184.507587649481138
99190.528816547070164
99214.036531446006848
99250.880194720404688
99278.892465234181145
99281.602490814373596
99267.627221578208264
99257.877082403894747
99261.879154147260124
99277.46512270293897
99299.899241605264251
99321.119033539580414
99330.990699388654321
99317.467888710860279
99278.086554599794908
99226.853699672981747
99185.802866029684083
99169.451023703688406
99174.938412098956178
99186.019152106382535
99189.663398235657951
99183.956122635514475
99171.75575828232104
99151.705817249545362
99122.450227750785416
99091.270313631830504
99074.659464980461053
99084.1717011967703
99113.977707059064414
99145.924584301290452
99163.473613297363045
99161.119416572837508
99148.064672449036152
99137.784536636434495
99133.815448394263512
99130.419373211960192
99122.673580218775896
99114.510385799221694
99114.364212844797294
99125.00414172973251
99137.048666769973352
99139.208947884326335
99128.980918713816209
99112.594639308939804
99097.932640581668238
99090.222431100308313
99091.347565297430265
99097.869419323367765
99105.597923679742962
99110.554644810486934
99111.892225862917257
99113.569515154333203
99123.360450991982361
99145.526820799335837
99175.65032414723828
99202.67800550951506
99218.629913508571917
99222.736534836134524
99220.542809844511794
99218.114680157566909
99217.132775882884744
99216.605830973756383
99219.369740405105404
99227.383070852098172
99238.903700672657578
99245.310453170197434
99238.089872064389056
99216.742817545266007
99188.58033317742229
99162.212816334038507
99142.182031682910747
99132.377429280604701
99135.354270501309657
99150.486697881104192
99171.829241422732593
99191.907739616523031
99206.144373314658878
99216.930343011961668
99229.401273714669514
99246.481640406476799
99266.454251496208599
99285.045192250254331
99299.413885927104275
99308.515780044996063
99313.731265886555775
99316.8737108031346
99319.099137579731178
99321.755349204322556
99326.86788419347431
99334.999428084891406
99343.663785973112681
99348.505224436856224
99348.26115131653205
99348.110882472115918
99356.946561709890375
99379.91708594695956
99412.618860261325608
99442.619561877829256
99458.644694245158462
99458.041420295412536
99447.370643395246589
99435.804499487945577
99427.817217713876744
99421.887855387554737
99414.115610008608201
99401.26185061178694
99383.24932877527317
99363.545485670794733
99346.725014105599257
99336.975933640118456
99336.985785592682078
99347.250720052135875
99366.306376228749286
99390.047073817957425
99412.249069416342536
99427.179652353457641
99432.094662938528927
99428.258969517730293
99419.960339472163469
99411.912226042739348
99406.725682885982678
99403.059385497574112
99397.545953778273542
99386.522652375206235
99054.083801871704054
99037.143156806967454
99027.655468329336145
99023.294992122493568
99020.852885373460595
99018.646514907348319
99017.622228706153692
99020.447939268386108
99029.256305414339295
99043.491117109384504
99059.55495556416281
99072.528628314379603
99078.679658081629896
99076.655159812726197
99067.459990215400467
99053.110119339820812
99035.42734765727073
99015.667573044396704
98994.652006850606995
98973.217200202328968
98952.32574047682283
98932.38155475918029
98912.660766084023635
98891.47163499375165
98867.343518298308481
98840.769493168365443
98815.167861606561928
98796.191030161586241
98789.290762735137832
98796.930834291881183
98816.677694881756906
98841.488309582724469
98862.373331645154394
98872.188455289026024
98868.28257892485999
98853.027812165848445
98832.343114616363891
98812.755739807806094
98798.789514214426163
98791.694056324340636
98789.728093334750156
98789.971010736102471
98790.047481847257586
98789.085771555910469
98788.086177842575125
98789.012332045531366
98793.814326232342864
98803.626802481041523
98817.889455508455285
98834.354570720868651
98849.797772894904483
98860.742525893641869
98864.506297903542873
98860.187056304348516
98848.808960823516827
98832.978590141574387
98816.365154107726994
98802.94807756919181
98796.0897557727003
98798.025557584085618
98809.73112489291816
98830.583454222709406
98858.357869896499324
98889.38851267535938
98919.267768132835045
98943.838146013993537
98960.399342322984012
98968.649647494938108
98970.474397535537719
98968.589190973361838
98965.153372297107126
98961.055782181487302
98956.313906153154676
98951.304272743625916
98947.667394626521855
98948.070187829638598
98955.094251519432873
98969.495578237634618
98989.19443394652626
99009.304377278516768
99023.975191266523325
99028.753586588834878
99022.508306020070449
99007.704627080747741
98989.558127339070779
98974.082595116342418
98966.161789367659367
98968.004544565905235
98978.800775939482264
98995.422763649679837
99013.826058244754677
99030.753872955043335
99044.748635180760175
99056.128596215916332
99066.209777070296695
99076.137663505258388
99086.003865623948514
99094.650627669805544
99100.371977018556208
99101.804336496876203
99098.777886237032362
99092.647404252405977
99085.606865344641847
99080.01538534698193
99077.392336148230243
99077.842009167346987
99079.990007928616251
99081.660998089486384
99080.733648503082804
99075.898085537235602
99066.995310392027022
99054.830465183462366
99040.80350199106033
99026.368038131506182
99012.599271180821233
99000.270168917879346
98990.000309700582875
98982.331325816427125
98977.559530085811275
98975.47313799278345
98975.199381898899446
98975.318868387272232
98974.223041568504414
98970.695994796478772
98964.425293830834562
98956.229057652351912
98947.906044558345457
98941.356435300956946
98938.252196651505074
98939.152695858458173
98943.719695179257542
98950.637839804403484
98958.346895449154545
98965.181033473418211
98969.995666951945168
98972.223964885313762
98971.963583602046128
98969.827021577773849
98966.631927454989636
98963.342721925859223
98960.839152206594008
98959.673630061734002
98960.094927139609354
98961.757143485199776
98963.741098441270879
98965.009046501494595
98964.774921295349486
98962.686682986051892
98958.931611445674207
98954.154512639986933
98949.347443053397001
98945.466111852801987
98943.151445585870533
98942.595140073040966
98943.820813701488078
98946.904740639874944
98952.063843110096059
98959.639212049733032
98969.823839830321958
98982.44622601105948
98996.671590249592555
99011.01775682225707
99023.854299676779192
99034.031671525226557
99041.28086807281943
99046.268373304716079
99050.197315981218708
99054.308085354568902
99059.422863987463643
99065.670248345573782
99072.523323788773268
99079.128653920750367
99084.627487461213605
99088.605136125333956
99091.01272780475847
99092.058072639978491
99091.974822078947909
99090.805221999296919
99088.357177070924081
99084.270899352675769
99078.30894162034383
99070.586245182756102
99061.695925313208136
99052.408748529720469
99043.477297724966775
99035.418021663455875
99028.551465278942487
99022.940083227484138
99018.564628012842149
99015.47618158061232
99013.860630406212294
99014.008030115466681
99015.990649162689806
99019.500317452824675
99023.655300042883027
99027.23102270567324
99029.172063769059605
99029.108193007181399
99027.540725595186814
99025.630356859051972
99024.992519530191203
99027.302320675647934
99033.606363321858225
99043.887286385463085
99057.061172753863502
99071.380248686211416
99084.993687054316979
99096.523637938473257
99105.412081774644321
99112.025612590397941
99117.470179004842066
99123.176822006440489
99130.335550692834659
99139.428743084194139
99150.027891941281268
99160.849822603777284
99170.134078954622964
99176.11035672230355
99177.460906167310895
99173.664772373071173
99165.190754420938902
99153.341242086680722
99139.873653519927757
99126.605260980053572
99114.924818841129309
99105.532694551133318
99098.459500995129929
99093.216467374426429
99089.116351520060562
99085.481449199462077
99081.696031912550097
99077.295341813296545
99072.08008834742941
99066.107834578680922
99059.471331427339464
99052.109865500591695
99043.95475717568479
99035.070537163337576
99025.521978856093483
99015.368916473380523
99004.898248544515809
98994.66405126961763
98985.321143833745737
98977.490167332871351
98971.699476376670646
98968.33296554221306
98967.618936736835167
98969.627144474841771
98974.28911545961455
98981.463961446439498
98990.867525869311066
99001.980981211818289
99014.022003236605087
99026.029426562978188
99036.979538016108563
99045.897907787628355
99653.4953887250158
99371.100484336770023
99350.959330067460542
99417.020368213197798
99520.016409019313869
99502.606658699616673
99432.413103117985884
99453.860121824531234
99490.247209646549891