/*--------------------------------*- C++ -*----------------------------------*\
  =========                 |
  \\      /  F ield         | OpenFOAM: The Open Source CFD Toolbox
   \\    /   O peration     | Website:  https://openfoam.org
    \\  /    A nd           | Version:  12
     \\/     M anipulation  |
\*---------------------------------------------------------------------------*/
FoamFile
{
    format      ascii;
    class       volScalarField;
    location    "0.0061";
    object      pMean;
}
// * * * * * * * * * * * * * * * * * * * * * * * * * * * * * * * * * * * * * //

dimensions      [1 -1 -2 0 0 0 0];

internalField   nonuniform List<scalar> 
75962
(
98766.950902289449004
98767.378626087476732
98767.154789042033372
98766.934720406439737
98766.789061498842784
98766.640667657600716
98766.469247030108818
98766.252670127738384
98765.967096119260532
98765.603923914444749
98765.172604424602468
98764.71432182022545
98764.248525144474115
98763.725443499279208
98763.126847800012911
98762.510205096274149
98761.936758454787196
98761.419935095211258
98760.933601969198207
98760.421843445321429
98759.856655954572489
98759.275229006496374
98758.71670976668247
98758.159043980529532
98757.550953312675119
98756.892846083428594
98756.237624530564062
98755.620730431808624
98755.031955297235982
98754.4531394289952
98753.890505666146055
98753.344236490389449
98752.79944082252041
98752.250043163672672
98751.699453706241911
98751.154010484227911
98750.623474254956818
98750.118030903788167
98749.628011809880263
98749.135944890993414
98748.650011117482791
98748.191965992155019
98747.758918504696339
98747.328362048021518
98746.891411613440141
98746.462335743242875
98746.048904080293141
98745.635048125928733
98745.207637033745414
98744.777516670001205
98744.364979527294054
98743.975950700827525
98743.601367183349794
98743.227124514771276
98742.841811062666238
98742.441069845590391
98742.031564452991006
98741.626585225341842
98741.236068040350801
98740.866094373544911
98740.520474400051171
98740.198936461674748
98739.890324851876358
98739.577567281172378
98739.255307416999131
98738.935768782510422
98738.62927222190774
98738.328215272762463
98738.016743978922023
98737.688723447659868
98737.351994703829405
98737.019514025349054
98736.69956831917807
98736.393518846831284
98736.099492532055592
98735.813561446411768
98735.527029137956561
98735.234655749096419
98734.935712218823028
98734.636716926732333
98734.346105089629418
98734.069207327149343
98733.807108428649371
98733.557985982348328
98733.316727583049214
98733.079399419919355
98732.844905431236839
98732.613773430261062
98732.387677361635724
98732.16918047942454
98731.960971660169889
98731.762763985665515
98731.56829989918333
98731.367594262643252
98731.151375366476714
98730.918685267068213
98730.675462937753764
98730.427732083553565
98730.177560416967026
98729.925898495857837
98729.676368638334679
98729.435829925525468
98729.20834449196991
98728.990654602617724
98728.773156674782513
98728.549063654252677
98728.322456940630218
98728.105318727553822
98727.9063746980828
98727.723220673549804
98727.542346993926913
98727.349497937044362
98727.141613857631455
98726.92758183699334
98726.718970688511035
98726.520850578002864
98726.328959597361973
98726.134525524525088
98725.931253060771269
98725.718399099438102
98725.500162941971212
98725.281886665761704
98725.067701716441661
98724.859175392732141
98724.653638106028666
98724.445694744441425
98724.23031732585514
98724.004496831417782
98723.768296576250577
98723.52346602405305
98723.272747974551748
98723.019326664900291
98722.767166171164718
98722.520371182938106
98722.282985210928018
98722.059257073749905
98721.850713959065615
98721.655405837736907
98721.466823390321224
98721.276638167022611
98721.079389002508833
98720.874922876872006
98720.66582418170583
98720.453967143737827
98720.23905804772221
98720.01956919816439
98719.795230941905174
98719.568969912055763
98719.346483765417361
98719.134166532778181
98718.936644564833841
98718.754979650620953
98718.585814922276768
98718.422940030301106
98718.260316605621483
98718.094966514487169
98717.928480275557376
98717.76597416549339
98717.612456403323449
98717.468793513558921
98717.330476550123421
98717.190680992993293
98717.045127069199225
98716.895246962201782
98716.747473802926834
98716.608616967860144
98716.481258184780017
98716.362613551464165
98716.246883167405031
98716.128961229973356
98716.007104212214472
98715.882781882261042
98715.758615875398391
98715.636426519326051
98715.516612572886515
98715.398039128427627
98715.278253262513317
98715.154555718327174
98715.025008707438246
98714.889215190938557
98714.749190561487922
98714.60894610871037
98714.472298410211806
98714.340687775242259
98714.212759742906201
98714.08549005187524
98713.956061872304417
98713.82362619380001
98710.107088380595087
98710.057768752187258
98710.00915900185646
98709.957036846230039
98709.899538309007767
98709.836918773507932
98709.770108963697567
98709.699407213556697
98709.624109456068254
98709.543272584196529
98709.457072587974835
98709.367590043882956
98709.278253017255338
98709.192262084339745
98709.111295489754411
98709.035227458021836
98708.962854659781442
98708.892933676048415
98708.824951716931537
98708.759271216156776
98708.696734590615961
98708.637910866818856
98708.582882115937537
98708.531512176559772
98708.483680153571186
98708.439276819524821
98708.397770354160457
98708.357471743001952
98708.315216637492995
98708.267082338512409
98708.209998869439005
98708.143221081598313
98708.068889839807525
98707.991383587388555
98707.915594439793495
98707.844859765013098
98707.77971944201272
98707.718205655764905
98707.657363324411563
98707.595013507219846
98707.530887729852111
98707.466708758336608
98707.405321805941639
98707.349306052390602
98707.29978961260349
98707.255984561197693
98707.215510912734317
98707.175235107832123
98707.132189134179498
98707.084479036551784
98707.031972774653696
98706.976395558172953
98706.920856518670917
98706.868900217785267
98706.823350482562091
98706.785660382956848
98706.755935159104411
98706.733386101885117
98706.716833870392293
98706.704776596205193
98706.69516676881176
98706.685384330456145
98706.672602025384549
98706.654658232146176
98706.630890599277336
98706.602644301805412
98706.573016612717765
98706.545898373457021
98706.524654378721607
98706.511211033750442
98706.505815947297378
98706.507415244574076
98706.514319438589155
98706.524651961444761
98706.536520715992083
98706.547818010250921
98706.556151175609557
98706.559241034410661
98706.555702951183775
98706.545808613664121
98706.531951049721101
98706.518286417485797
98706.509493583638687
98706.5093414807925
98706.519562681671232
98706.53934551376733
98706.565691419076757
98706.594266628235346
98706.620630549092311
98706.641427153866971
98706.654940554770292
98706.661149812367512
98706.661272070821724
98706.65712341904873
98706.650586643547285
98706.643241193582071
98706.636382622309611
98706.631163873404148
98706.628673801533296
98706.629847972217249
98706.635342287801905
98706.645287631617975
98706.659149262195569
98706.675830113337724
98706.693874004893587
98706.711879447408137
98706.728870683335117
98706.744513208279386
98706.759026010535308
98706.772871877939906
98706.786503246839857
98706.800239321979461
98706.814179964392679
98706.828227145349956
98706.842192974159843
98706.855827723033144
98706.868729606416309
98706.880372299448936
98706.890318217745516
98706.898486792080803
98706.905292965529952
98706.911737717135111
98706.919297922562691
98706.929528999564354
98706.943567962502129
98706.961698761719163
98706.983153357403353
98707.006149404565804
98707.028313050395809
98707.047174242354231
98707.060669530808809
98707.067470408132067
98707.067023147639702
98707.059484194949619
98707.045633372239536
98707.026740368863102
98707.004357816505944
98706.97999918559799
98706.954822211395367
98706.929484878084622
98706.904109792216332
98706.878355674256454
98706.851676494712592
98706.823591610140284
98706.793942460804828
98706.763071489607682
98706.731759835718549
98706.700997411811841
98706.67166850680951
98706.644273356840131
98706.618843073098105
98706.594995174615178
98706.572158205861342
98706.549699877810781
98706.526990421974915
98706.503380997863133
98706.478182960709091
98706.450665695301723
98706.420148916789913
98706.386147070414154
98706.348528424758115
98706.307623822634923
98706.264157376819639
98706.219160592605476
98706.173738350757048
98706.12886844042805
98706.085260721461964
98706.043273758536088
98706.002863158500986
98705.963651714104344
98705.925078767482773
98705.886566040077014
98705.847596418694593
98705.807813702849671
98705.767073769529816
98705.725450722922687
98705.683267949076253
98705.641090379314846
98705.599696649063844
98705.559979833022226
98705.52278924548591
98705.48870612650353
98705.457967313370318
98705.430414020520402
98705.405581244325731
98705.382867845342844
98705.361743269095314
98705.341918339690892
98705.323374510800932
98705.306229940266348
98705.290582949208329
98705.276432600352564
98705.263625751642394
98705.251888596147182
98705.240907795800013
98705.23049592798634
98705.220637737962534
98705.21143310086336
98705.202920079624164
98705.194925364601659
98705.186980394733837
98705.178303878463339
98705.167922401538817
98705.154892361199018
98705.138571043906268
98705.118839854578255
98705.09613932252978
98705.071289128114586
98705.045254443844897
98705.018896510155173
98704.992813397824648
98704.967302706689225
98704.942410289891995
98704.918117792258272
98704.894556456201826
98704.872197402452002
98704.851937055776943
98704.835076172457775
98704.823158113038517
98704.817670088479645
98704.819773971190443
98704.830188612715574
98704.849190802066005
98704.876659793051658
98704.912159254818107
98704.95521470499807
98705.005535432501347
98705.063094859186094
98705.128084204465267
98705.20084947545547
98705.281797519841348
98705.371410734151141
98705.470248096738942
98705.578894125777879
98705.697998091316549
98705.828286271454999
98705.970579093700508
98706.125754328764742
98706.294703653868055
98706.478253155437415
98706.67709525047394
98706.891718705417588
98707.122379003398237
98707.369132669700775
98707.631929714843864
98707.91076018489548
98708.205774969101185
98708.517328100511804
98708.84594819949416
98709.192224973638076
98709.55677235229814
98709.940284989381325
98710.343593757716008
98710.767786971962778
98767.842708323601983
98768.036046339577297
98766.983104623606778
98766.74704979127273
98766.565844957280206
98766.383338105035364
98766.245986066496698
98766.063030403369339
98765.777215238180361
98765.4235642276617
98765.02455331775127
98764.600073889334453
98764.153968514321605
98763.638986105041113
98763.04758904085611
98762.44821291284461
98761.902571967992117
98761.421860400630976
98760.966283797650249
98760.464327226029127
98759.899782764885458
98759.331753687773016
98758.806403842580039
98758.288604716828559
98757.709748351582675
98757.055418352028937
98756.385845245691598
98755.753145518552628
98755.153370673200698
98754.563403662919882
98753.982485745043959
98753.416153730897349
98752.862260486203013
98752.321894648179295
98751.78971335173992
98751.253949910358642
98750.718184502664371
98750.199492983330856
98749.702517289159005
98749.214041192550212
98748.733743602773757
98748.274035595328314
98747.830550583137665
98747.383999218625831
98746.933893787194393
98746.497929865363403
98746.080753564499901
98745.660393067460973
98745.225009137095185
98744.790121017693309
98744.374573642446194
98743.98010249582876
98743.59494661843928
98743.212037378922105
98742.827348676917609
98742.433828472159803
98742.029338582869968
98741.624638761524693
98741.239101960323751
98740.881099273741711
98740.54768439779582
98740.228671503122314
98739.911169819373754
98739.587913300230866
98739.264011352119269
98738.950666789125535
98738.651017324416898
98738.354252717996133
98738.043898386968067
98737.714984946651384
98737.37815324809344
98737.049108952807728
98736.73609803438012
98736.43740223646455
98736.147405889860238
98735.857384989896673
98735.55953503868659
98735.251222932405653
98734.938265241828049
98734.632575415118481
98734.34495315021195
98734.078941538871732
98733.829646909798612
98733.587774764557253
98733.346085476572625
98733.102894125986495
98732.860291309276363
98732.62031561974436
98732.384905859944411
98732.157318269033567
98731.942339685629122
98731.740124419447966
98731.542965959248249
98731.337952112080529
98731.115531879375339
98730.876753770455252
98730.629652041650843
98730.38122237076459
98730.134244584973203
98729.888356216921238
98729.644495912376442
98729.407172265520785
98729.179649689598591
98728.959068889860646
98728.738468991956324
98728.512757320233504
98728.285789835252217
98728.067202933918452
98727.863320832984755
98727.67196031473577
98727.484330928418785
98727.291446982082562
98727.091224983203574
98726.887974652636331
98726.687632883738843
98726.493195854549413
98726.302871032006806
98726.111660054608365
98725.913625265980954
98725.705012458434794
98725.486528220309992
98725.262920117384056
98725.039843077232945
98724.82051101718389
98724.603833635745104
98724.386226329632336
98724.164115304578445
98723.935840439153253
98723.700490280200029
98723.457572258557775
98723.20847047076677
98722.957057195104426
98722.708923512458568
98722.469354575616308
98722.241794792265864
98722.027714612908312
98721.826314410718624
98721.633793180808425
98721.442845788915292
98721.246569567112601
98721.042290184486774
98720.832110150469816
98720.619215294485912
98720.405169837511494
98720.188784605605179
98719.967920658949879
98719.742358666335349
98719.514850977400783
98719.290842345231795
98719.07603859603114
98718.874257554401993
98718.686236598092364
98718.509682699979749
98718.340377986547537
98718.173909390316112
98718.008106064939057
98717.844420682347845
98717.686933613033034
98717.538949072535615
98717.399361282368773
98717.262362345150905
98717.120920917906915
98716.971471122247749
98716.816348627573461
98716.662595850619255
98716.517091025132686
98716.381923858716618
98716.254411154703121
98716.130102974013425
98716.00554685833049
98715.880274882772937
98715.75640131966793
98715.636273712530965
98715.520883466306259
98715.409603999112733
98715.300304435819271
98715.189557675636024
98715.073619820090244
98714.94982425084163
98714.817764939754852
98714.679953088081675
98714.540967575565446
98714.405072481662501
98714.274237684570835
98714.147574443399208
98714.022495344586787
98713.896515627158806
98713.768806714972015
98713.640762380877277
98710.286420998032554
98710.233452767410199
98710.184699065590394
98710.135775436021504
98710.083867485736846
98710.027989543159492
98709.968283254173002
98709.90494854284043
98709.837351038746419
98709.764038431487279
98709.683771438751137
98709.596769001582288
98709.50524982578645
98709.41271243582014
98709.322494554755394
98709.236614448658656
98709.155584007516154
98709.078992964932695
98709.006162378107547
98708.936587521748152
98708.870119382045232
98708.806947458346258
98708.747393142461078
98708.691765086041414
98708.640518681611866
98708.59430235819309
98708.553451398649486
98708.517091408619308
98708.482470259114052
98708.445169806960621
98708.400383302359842
98708.344579823111417
98708.277065422997111
98708.200558487718808
98708.12026839000464
98708.041788440576056
98707.968962173428736
98707.902710077789379
98707.841315956480685
98707.781832853957894
98707.721789071380044
98707.660430093717878
98707.598932602544664
98707.539555987299536
98707.484399083215976
98707.434289089185768
98707.388466710195644
98707.34489030991972
98707.300795545248548
98707.253621107374784
98707.201939759019297
98707.146005688904552
98707.087895188844413
98707.030918305070372
98706.978592362560448
98706.933754452868016
98706.898044923000271
98706.871719239861704
98706.853821330980281
98706.842455925885588
98706.835140820912784
98706.82899201240798
98706.821066562333726
98706.808906071601086
98706.791097287801676
98706.767808332282584
98706.740958268434042
98706.713757057514158
98706.689590183406835
98706.67101391190954
98706.659324309817748
98706.654706327535678
98706.656628830809495
98706.664200143874041
98706.676260235210066
98706.691127381913248
98706.706374609697377
98706.719065857323585
98706.726460636520642
98706.727028363457066
98706.721325091217295
98706.712221702910028
98706.704200248568668
98706.701887734961929
98706.708584498730488
98706.725284957050462
98706.750442963922978
98706.780498641848681
98706.811058731691446
98706.838181344617624
98706.859320978532196
98706.873654454044299
98706.881771437634598
98706.885039028347819
98706.88496161979856
98706.882814927201252
98706.879612005956005
98706.876228341512615
98706.873618759040255
98706.872890180733521
98706.875158587106853
98706.881216275374754
98706.891218590375502
98706.904651031392859
98706.920339964155573
98706.936773817535141
98706.952579852004419
98706.96698042738717
98706.979956875089556
98706.99210193901672
98707.004227611396345
98707.017092073729145
98707.031225747530698
98707.046849688049406
98707.063968022383051
98707.082369962867233
98707.10162123911141
98707.121081661432981
98707.140011319890618
98707.157746910466813
98707.173882223738474
98707.188452415910433
98707.202107867473387
98707.215980422712164
98707.231484733580146
98707.249758139223559
98707.271185041885474
98707.29520740910084
98707.320319276594091
98707.34443461963383
98707.365270985144889
98707.38095987419365
98707.390286643771105
98707.392888224101625
98707.389164905252983
98707.380048340346548
98707.366820138762705
98707.350884717379813
98707.333490338874981
98707.315517259179614
98707.297356622482766
98707.278900284771225
98707.259673708307673
98707.239079634906375
98707.216752249645651
98707.192717906349571
98707.167422464801348
98707.141718332844903
98707.116649665666046
98707.093104358238634
98707.071576272355742
98707.052073875747737
98707.034234353879583
98707.01752206281526
98707.001419044405338
98706.985413978327415
98706.968920348677784
98706.951237090630457
98706.931548183842096
98706.909038253084873
98706.883108889407595
98706.853553192937397
98706.820662427824573
98706.785182844294468
98706.748137157264864
98706.710614636234823
98706.673485388586414
98706.637236928057973
98706.60191685371683
98706.567281076713698
98706.532972381843138
98706.498712028042064
98706.464375640425715
98706.429984575763228
98706.395718455169117
98706.361857880561729
98706.328766587655991
98706.296849302743794
98706.266553967623622
98706.238404756120872
98706.212980721335043
98706.19079803940258
98706.172154057479929
98706.157062650643638
98706.145261812882381
98706.136386699567083
98706.130064310316811
98706.126006206759484
98706.124081351837958
98706.124258991942042
98706.126484457519837
98706.130566168634687
98706.136209207412321
98706.143047077639494
98706.150726094318088
98706.159047692955937
98706.16807476869144
98706.178170215513092
98706.189787706753123
98706.203218172595371
98706.218380194564816
98706.234754132965463
98706.25142246352334
98706.26724687134265
98706.281146783017903
98706.292466544677154
98706.301153678738046
98706.307738374918699
98706.313144770654617
98706.318412560722209
98706.32438071956858
98706.331468564603711
98706.339649997724337
98706.348620000164374
98706.358053088973975
98706.367933016153984
98706.37877674207266
98706.391705905727576
98706.408239844604395
98706.430074243122363
98706.458906858737464
98706.496153501197114
98706.542745289072627
98706.599049573851516
98706.664976085099624
98706.740160326196929
98706.824127765110461
98706.91651503025787
98707.017183330273838
98707.126222896826221
98707.243872634207946
98707.37043929588981
98707.506311589590041
98707.652000803136616
98707.808084723888896
98707.975172672406188
98708.153995148531976
98708.345382364641409
98708.550193205184769
98708.769268688338343
98709.003411096564378
98709.253334063338116
98709.519565922470065
98709.802403713256354
98710.101958323255531
98710.418220375446253
98710.751089130892069
98711.100494249185431
98711.466505325603066
98711.849338759435341
98712.2493181835016
98712.666895021669916
98713.102660324133467
98713.557402336286032
98714.032114858840941
98764.360592388460645
98765.74129132021335
98765.741743152379058
98765.867231353826355
98765.96764793805778
98765.878158322404488
98765.751564086851431
98765.60037290485343
98765.361320985059137
98765.057966027758084
98764.723227715308894
98764.364390995790018
98763.948147754897946
98763.449119542623521
98762.899075544017251
98762.352001711798948
98761.848924449586775
98761.396545856521698
98760.953403836392681
98760.450649718084605
98759.882391481514787
98759.310775112870033
98758.782494368002517
98758.27120034082327
98757.71594119425572
98757.092475757992361
98756.442691638279939
98755.813685503497254
98755.21299555907899
98754.630940282790107
98754.06041088377242
98753.49980679890723
98752.953991616057465
98752.427462628911599
98751.909984658690519
98751.377266618073918
98750.829859265926643
98750.296810399988317
98749.796064108173596
98749.314961360476445
98748.838039275680785
98748.367749994897167
98747.911151510983473
98747.464207819735748
98747.025044262642041
98746.597726775304182
98746.175527874831459
98745.742085251942626
98745.296546697049052
98744.858036180332419
98744.440420616578194
98744.038301201711874
98743.642303029439063
98743.252953998569865
98742.867909499938833
98742.474249297025381
98742.067006481025601
98741.662674948820495
98741.283449582042522
98740.934171136133955
98740.604570741692442
98740.280559010891011
98739.956345760030672
98739.633882165784598
98739.318432998144999
98739.011834315257147
98738.712918403791264
98738.413256051993812
98738.101447926557739
98737.774821292812703
98737.443568139555282
98737.121254884870723
98736.813799452735111
98736.516684575617546
98736.222276928208885
98735.923133724281797
98735.615236445752089
98735.299798645937699
98734.984905576144229
98734.68322722564335
98734.40623499758658
98734.154386569251074
98733.917719142162241
98733.681636553956196
98733.437576285228715
98733.184829724981682
98732.927980140448199
98732.672288679968915
98732.422073901165277
98732.183117243635934
98731.960229965203325
98731.751243369013537
98731.546308169999975
98731.332467233529314
98731.102922362275422
98730.859973319398705
98730.611476482183207
98730.36451890860917
98730.12042939796811
98729.877210470818682
98729.634258620906621
98729.39481004611298
98729.162715653452324
98728.937267467466881
98728.713188076872029
98728.486413822553004
98728.258699319296284
98728.035913242652896
98727.823297488386743
98727.621368587875622
98727.426768127537798
98727.235201675983262
98727.042732338100905
98726.848237719066674
98726.653319439021288
98726.460961509335903
98726.272488977323519
98726.085446576515096
98725.89392407865671
98725.692078420674079
98725.477296113444027
98725.252151899054297
98725.021928884409135
98724.790482093609171
98724.559566271491349
98724.328507445927244
98724.097624153146171
98723.866841032926459
98723.63435184393893
98723.397668149525998
98723.156242168290191
98722.913919278595131
98722.67635682252876
98722.448076258951914
98722.230335297848796
98722.021514355379622
98721.818878001329722
98721.618879880174063
98721.416889740081388
98721.209310563659528
98720.996381602366455
98720.780452438251814
98720.564335648305132
98720.348675360975903
98720.131917377206264
98719.912280538948835
98719.689928211242659
98719.467062727868324
98719.24679351040686
98719.032343278246117
98718.825626652862411
98718.627707049396122
98718.439075948743266
98718.259310356501373
98718.087071918635047
98717.921005780779524
98717.761072367284214
98717.609037169371732
98717.466454456734937
98717.331196037557675
98717.196923240262549
98717.056390814352199
98716.906281224903069
98716.749155208555749
98716.591690697809099
98716.440159897319973
98716.296634715108667
98716.159285091271158
98716.025498412796878
98715.893988655632711
98715.765510935612838
98715.642173975909827
98715.52561721651
98715.415791452047415
98715.310919077892322
98715.207775187140214
98715.102549975854345
98714.991773796849884
98714.872969381525763
98714.745605481002713
98714.611766465153778
98714.475544094500947
98714.341226048520184
98714.211618340195855
98714.087221816240344
98713.966439478186658
98713.847003574628616
98713.727724104974186
98713.608906625158852
98710.42965446668677
98710.378637576359324
98710.329941811520257
98710.280249237664975
98710.227698234273703
98710.171958332444774
98710.113263747713063
98710.051376981587964
98709.984983343005297
98709.912219714475214
98709.831969513892545
98709.74475335056195
98709.652778950228821
98709.559213467786321
98709.467072365063359
98709.378466522175586
98709.29446277700481
98709.215233295282815
98709.140471443635761
98709.069770815462107
98709.002802892398904
98708.939242756576277
98708.878902884214767
98708.822090532528819
98708.769830443052342
98708.723424186086049
98708.683512391668046
98708.648938343205373
98708.616255417451612
98708.580327243995271
98708.535854901041603
98708.479448684098315
98708.41099923751608
98708.333755297106109
98708.253107751079369
98708.174556807862245
98708.101670585558168
98708.035229936213
98707.973770923446864
98707.914875383168692
98707.856498203749652
98707.79780261637643
98707.739264613410342
98707.682164142752299
98707.627711431021453
98707.576321857035509
98707.527404456734075
98707.479424348290195
98707.430386189153069
98707.37855278934876
98707.323192590483814
98707.265048490269692
98707.206247344860458
98707.149785577261355
98707.098803348184447
98707.055931737355422
98707.022765729459934
98706.999556936090812
98706.985138094343711
98706.977235081460094
98706.972814145046868
98706.968638805890805
98706.961844408026082
98706.950416803898406
98706.933631970430724
98706.912314791392419
98706.888636966818012
98706.865449425036786
98706.845306124887429
98706.829912879664334
98706.820078214164823
98706.816047703279764
98706.817868986414396
98706.825502094143303
98706.838454685610486
98706.855361385518336
98706.873783511910005
98706.890491550482693
98706.902441758458735
98706.907999021888827
98706.907868235866772
98706.905030912777875
98706.90383838742855
98706.908559434436029
98706.921935370366555
98706.944361672838568
98706.973862428218126
98707.006805239318055
98707.039086734788725
98707.067321217313292
98707.089641337981448
98707.105768591325614
98707.116521710820962
98707.123134634603048
98707.126738516933983
98707.12818760726077
98707.128111120240646
98707.127196454574005
98707.126417875610059
98707.12700908993429
98707.130246054119198
98707.137038616041536
98707.147504791631945
98707.160854972244124
98707.175681972526945
98707.190376614438719
98707.203655124714714
98707.214953219590825
98707.224596351879882
98707.23356773503474
98707.243155602162005
98707.254550147976261
98707.268596520516439
98707.285712160068215
98707.3059091190662
98707.328831425795215
98707.353799045275082
98707.37988176640647
98707.405999914743006
98707.431113441212801
98707.454505875648465
98707.475945587008027
98707.495834672736237
98707.515160872950219
98707.535153845936293
98707.556834798844648
98707.580688135931268
98707.606331878705532
98707.632560698722955
98707.657501893001609
98707.679167292953935
98707.695931836016825
98707.706953724235063
98707.71219851958449
98707.712268364120973
98707.708189607626991
98707.701208413287532
98707.692443173888023
98707.682750943116844
98707.672624283615733
98707.662157077953452
98707.651152412654483
98707.639199348312104
98707.625791277401731
98707.610588325056597
98707.593577419029316
98707.575101074646227
98707.555837425257778
98707.536638647274231
98707.518293463188456
98707.50134046387393
98707.486033381443121
98707.472407383073005
98707.460328728091554
98707.449572115088813
98707.439796726961504
98707.430444193829317
98707.420720416586846
98707.409697028546361
98707.396442111785291
98707.380211936702835
98707.360690112851444
98707.338061032874975
98707.312926516184234
98707.286102482132264
98707.258391993775149
98707.230404031754006
98707.202399323126883
98707.174333318587742
98707.146018990315497
98707.1173211842397
98707.088338929053862
98707.059449822903844
98707.031214363523759
98707.004245568445185
98706.979078046788345
98706.956159237292013
98706.935830661401269
98706.918400862079579
98706.904204022051999
98706.893559070857009
98706.886705627592164
98706.883765125559876
98706.884718800065457
98706.889434266544413
98706.897661563882139
98706.90916079346789
98706.923743477469543
98706.941271331204916
98706.96163424567203
98706.984644645592198
98707.009949615981895
98707.037019925526693
98707.06527206460305
98707.094232896852191
98707.123703292149003
98707.153835835313657
98707.185120554975583
98707.218193763459567
98707.253536802774761
98707.291235135970055
98707.330885153234703
98707.371694217232289
98707.412695305974921
98707.453018422645982
98707.492093367414782
98707.529857202927815
98707.566838346436271
98707.603987406357192
98707.642275713136769
98707.682370685419301
98707.724475211580284
98707.768342217357713
98707.813436638462008
98707.859202262174222
98707.905399013223359
98707.952380098518915
98708.001191816001665
98708.053430729720276
98708.110935434189741
98708.175533993533463
98708.248849607756711
98708.332018108427292
98708.425612107268535
98708.529714527641772
98708.644084560466581
98708.768348992467509
98708.902181919751456
98709.045389149803668
98709.197949792738655
98709.360007266222965
98709.531793141009985
98709.713589614068042
98709.905741481503355
98710.10869443739648
98710.323072890532785
98710.549620143516222
98710.789144445559941
98711.042489632003708
98711.310500189327286
98711.593948724213988
98711.893519254925195
98712.20979817037005
98712.543173886893783
98712.893785244174069
98713.261563904176001
98713.646278325191815
98714.047617278352845
98714.465320868679555
98714.899297640207806
98715.349661457250477
98715.816709140839521
98716.300947576906765
98716.803148403167143
98717.324364460830111
98717.865895318507683
98765.553682816986111
98766.513310996611835
98766.289995941566303
98766.140469271078473
98766.066840191750089
98765.941744817246217
98765.751086378819309
98765.511300628742902