/*--------------------------------*- C++ -*----------------------------------*\
  =========                 |
  \\      /  F ield         | OpenFOAM: The Open Source CFD Toolbox
   \\    /   O peration     | Website:  https://openfoam.org
    \\  /    A nd           | Version:  12
     \\/     M anipulation  |
\*---------------------------------------------------------------------------*/
FoamFile
{
    format      ascii;
    class       volScalarField;
    location    "0.0061";
    object      rho;
}
// * * * * * * * * * * * * * * * * * * * * * * * * * * * * * * * * * * * * * //

dimensions      [1 -3 0 0 0 0 0];

internalField   nonuniform List<scalar> 
75962
(
1.1556917394839631985
1.1528001960391083269
1.1524047215223778284
1.1536598726259736925
1.1525338922468335578
1.1509599488343655871
1.1502019848213935749
1.1502793135034647953
1.1506721186274022628
1.1509244485869698504
1.1509240211507523188
1.1505799729837511425
1.1507354393343296461
1.1515470768355395847
1.1520333097330830441
1.1517051679991650026
1.150934027099107082
1.1501624408905704033
1.1497610898010313107
1.1497673040817635304
1.1495878559822112486
1.1488510888148293354
1.1482467051838201044
1.1486054795942026718
1.1496006948356074506
1.1501456564870389254
1.1497948482886772847
1.1490813953813416859
1.1485018775826296711
1.1479776446165659287
1.1474775243686115012
1.1473699367103384894
1.1477304331570532536
1.1482436790856382913
1.1486696105181393168
1.1488524576939544986
1.1485846105205610446
1.148037661896345929
1.1475974355820413031
1.1473283763451478379
1.1469559565029641135
1.1466233276018726883
1.1466722482586915177
1.1469410636656878211
1.146897523318082257
1.1463875804179408657
1.1458037286620119666
1.1455612664944718748
1.1455631526730953862
1.1455653699159140668
1.1455813971378687732
1.1457408578093175588
1.1460508810787441991
1.1463944116208950597
1.1466361765177457421
1.1466583385887967328
1.1464177107439594838
1.1461077384751350294
1.1458886813322055609
1.1457813875419275984
1.1457072678405320065
1.1456098830103682573
1.1455264424900384324
1.145402878369859323
1.1450752957111065555
1.1446204400770518816
1.1444270171159542926
1.1448019586293871619
1.1456061557105066129
1.1463701448323022625
1.1467154116117070917
1.1465843185307871277
1.1461825811176256096
1.1458034166724957448
1.1456766032206546768
1.1458804585509909657
1.1463179372162743963
1.1467148996683460549
1.1468043496210673649
1.1464674680226856207
1.1458285700130417251
1.1451467010449358774
1.1446544536261700209
1.1444667910703549829
1.14454232899329722
1.1447199943461205951
1.1448410963258861539
1.1448392875086146336
1.1447362091667172557
1.1445790410769935974
1.1444387295753273293
1.1443846087582296711
1.1444750784875721283
1.1446936704468502199
1.1449143558563623646
1.1449969127828036886
1.144914765878413565
1.1447607972758875317
1.1446242853428680863
1.1445080159417619914
1.1443513980208110947
1.1441257754825007176
1.1439060508895946278
1.1438252545480191991
1.1439318194620018421
1.1441207831582478338
1.144237391346846433
1.1442289239821101798
1.1442007944823016086
1.1443066428710337856
1.1445759151179406565
1.1448370288666676053
1.1448570226679357642
1.144523384171428404
1.1439466500299362295
1.1433707132804442619
1.1430055252256141607
1.1429350586622979424
1.1431103925737680083
1.1434422198416216432
1.1438555314440939092
1.1443060379190228559
1.1447564081215428899
1.1451767998190880427
1.1455349493782687187
1.1457825345450991517
1.1458708664348333794
1.1457710903644156009
1.1455133374618704512
1.1451784494668417747
1.1448573023249073444
1.1446249033082691593
1.144518946678684479
1.1445249092394331747
1.1445926083968369635
1.1446598586459619806
1.1447039243138006359
1.1447402582592047793
1.144788614710060326
1.1448148455893585318
1.1447555020043131968
1.1445789283259870661
1.1443359962037096267
1.1441287987420853955
1.1440569832108182791
1.144169234244047928
1.1444529401897587384
1.1448546589694192921
1.1453243898155129887
1.1458438723894814881
1.1464317485550454823
1.1471272994399155376
1.1479594302776578996
1.1489166544108722068
1.1499306205261763392
1.1508912832523827685
1.1516962202152514205
1.1523011235043685296
1.1527400963225677977
1.1530996253692700204
1.1534564943162748385
1.1538221159948798267
1.154137211556149456
1.1543188411718645625
1.1543323248586849772
1.1542249837758860043
1.1540935031259118571
1.1540188006435443402
1.1540226717624446628
1.1540648636403214589
1.1540852949000466321
1.1540507733490370512
1.1539681989715508958
1.1538703071333324957
1.1537952506194701918
1.1537722995098391721
1.1538179489560544955
1.1539247799478848933
1.1540592014608792581
1.1541717189436875302
1.1542175230027076349
1.1541833023333183394
1.154098053599531104
1.1540154481865319003
1.1539801992642420014
1.1540025922603514008
1.1540542742151582711
1.15408650759742204
1.1510828566284798669
1.1509549502390736819
1.1509270192315783632
1.1509624787373589072
1.1510135882090715143
1.1510520751996131672
1.1510828920643150219
1.151130380037855172
1.1512112174460933378
1.1513136878519059092
1.1513999437032189643
1.1514281462209301488
1.1513790996481267914
1.1512648744508193754
1.1511185956251488438
1.1509723785254521999
1.1508399101388353536
1.1507130449651481463
1.1505729089915446295
1.1504060040554546784
1.1502137793599642723
1.1500095831659340462
1.1498063472381734318
1.149608280483197964
1.1494151241350381021
1.1492321923348018942
1.1490775299301176915
1.1489800433514036904
1.1489658109779796735
1.1490381503303921384
1.1491666363871644307
1.1492941727244738725
1.1493611853794489797
1.1493339526609771539
1.1492210643386029378
1.1490667098363909204
1.1489265669701103079
1.1488385152890021601
1.1488066234836762369
1.148805084761245654
1.1487950862263207608
1.1487469035096924408
1.148655670696852038
1.1485406501385080347
1.1484356174918501914
1.1483757333982358428
1.1483858027859843443
1.14847175783346378
1.1486164190960141962
1.1487839723332162745
1.1489306474861320506
1.149019781586397837
1.1490345861890365331
1.1489826137485532609
1.1488900791955407588
1.1487903504408749633
1.1487121751488607035
1.1486732871883473805
1.148682495367019607
1.1487454615068288799
1.1488676847420060678
1.149049950051658664
1.1492812675442491965
1.1495329803705678362
1.1497618270177942801
1.1499244907303054486
1.1499959692452565996
1.1499799250578845999
1.149904712060819012
1.1498081730563283198
1.1497222798543993427
1.1496640294891760092
1.1496370339245285397
1.1496396869532796714
1.1496735877688164518
1.1497457554500434274
1.1498619745603952946
1.1500154583618451554
1.1501805316536657386
1.1503165460002684473
1.1503817860489240488
1.1503506059969357267
1.1502251992088581289
1.1500362498865759342
1.1498333915780993841
1.1496689922969267617
1.1495830877006130155
1.1495915417217354992
1.1496835193918641949
1.1498300440376267861
1.1499965198732426952
1.150152721880757678
1.1502809402548808126
1.150376957204926498
1.1504444279834662446
1.150487785872506219
1.1505086629865708403
1.1505048198776852697
1.1504711902024578052
1.1504069428545673492
1.1503176675080981628
1.1502154169865872468
1.1501172475301981724
1.150038314366676806
1.1499872335798666523
1.1499633917075342548
1.1499578128712202307
1.1499580907570301491
1.1499528749093124169
1.1499360863364558316
1.1499078876408048711
1.149872489647909557
1.1498339617304258464
1.1497960019279214183
1.1497624897979390468
1.1497366935362374196
1.1497208586820701903
1.1497144671371095637
1.1497139223576229305
1.1497103257731673409
1.1496907763057793161
1.1496438497298400172
1.1495639420893752902
1.1494566247303514839
1.1493364619961028428
1.1492238713743603284
1.1491394857615866432
1.1490975792740021344
1.1491048798970939782
1.1491588463293127553
1.1492497370895482511
1.1493628930015540313
1.1494828855330398998
1.1495957974265809121
1.1496896858235272632
1.1497562328949830768
1.1497918541687377481
1.1497996116460493798
1.149788479781655548
1.1497706051507445846
1.1497580098156137129
1.1497584340384177093
1.1497725650468471059
1.1497954571743198571
1.1498180618268072362
1.1498305251872809052
1.1498258407202432974
1.1498043290863071419
1.1497731764139698107
1.1497440342545131031
1.1497277988076568533
1.1497307441208359791
1.149754025125482082
1.1497957473419178065
1.1498540154785907852
1.1499285273244135297
1.1500205037852009315
1.1501309295151582734
1.1502580010132423816
1.1503953500182899639
1.1505326508397244467
1.1506571766090927245
1.150757552008291329
1.1508267991859273405
1.1508646913730100625
1.1508771840749010273
1.1508745585123059119
1.1508687263528871725
1.1508704737196586709
1.1508871522041057567
1.1509224492727172517
1.1509763744290735232
1.1510454517409225428
1.1511242881779037983
1.1512047766145117045
1.1512779623508773152
1.151333335294508764
1.151361250285700244
1.1513552339564834259
1.1513145224418550594
1.1512454375680221119
1.1511594692655404693
1.1510706990022068208
1.1509924920797343084
1.1509337257076004413
1.1508965860709579054
1.1508771534681141446
1.1508678738850592893
1.1508614648631940724
1.1508536080393940715
1.1508428122131966198
1.1508293966058027458
1.1508133495718666506
1.1507937002304065022
1.1507687828136614616
1.1507374124140177241
1.1506996639130284699
1.1506580387227918205
1.1506193649876941265
1.1505936415350732638
1.150591492824314388
1.1506207498441491932
1.150684210090116899
1.150777694113493288
1.150890529298375764
1.1510079429830191167
1.151115416851758777
1.1512026688052086065
1.1512664647170727239
1.1513112398029634598
1.1513459257428786398
1.1513797687855664709
1.1514179028299420526
1.1514594060243246165
1.1514976079948502363
1.1515219456070677762
1.1515216808567310114
1.1514899925496790978
1.1514264989752114321
1.1513372233246828014
1.1512332087103309686
1.1511276089754070018
1.1510312878814532578
1.1509505421820604987
1.150887401272584265
1.1508404238041400891
1.1508057619286371498
1.1507776280443977601
1.1507495072818409998
1.1507170115754044026
1.1506785435877457946
1.1506335811398082924
1.1505821333856862676
1.1505252436651909331
1.1504645882469310969
1.1504008878756071255
1.1503340052239061642
1.150265222802375753
1.1501977260702656025
1.1501346326688670629
1.1500784797605836385
1.1500328867178266634
1.1500016746841439375
1.1499868320778376951
1.149988250775202836
1.1500043172132083935
1.1500329313399006992
1.1500719331098145926
1.1501187851954535191
1.1501706536244364898
1.1502247624472003995
1.1502782316350448344
1.1503272936250237279
1.1503667342346390878
1.1518511215692273097
1.1522743917597308982
1.153368157027954588
1.1552633965437988373
1.1533494641185741969
1.1498000526817306888
1.1484196443925129838
1.1493630540354000669
1.1502964032474227718
1.1504451135428397368
1.1503767672023779145
1.1503042801216416535
1.1508303326625819452
1.1518421676745973503
1.1521756548174957313
1.1515697791293901808
1.150607542963748342
1.1498980827400369087
1.1497461915200855032
1.1500173414081129586
1.149730107204700591
1.1486274102472850966
1.1477814224797260323
1.1482060099506035122
1.1495536970603208449
1.1505128001057629561
1.1503692456170280245
1.1495913263926289538
1.1488954386170746602
1.1483168851172853575
1.1477880048058584084
1.1475397763290031694
1.1476431805458293667
1.1479840822733058392
1.1484615512345395238
1.1488400323317353724
1.1487244603310056146
1.1481487506362140216
1.1475698915316265847
1.147197200314203247
1.146904581385582933
1.1467411908100422213
1.1468874666138910712
1.147166000489135973
1.1470656813643500538
1.1464587708441584812
1.1458470490520089591
1.1455929785815746058
1.1455239355130875101
1.1454354986937218541
1.1454536203180929466
1.1457421751302516721
1.1461391573961783319
1.1463819602969262945
1.1464205820774793221
1.1463553554949326152
1.1461626298945437608
1.145826349465740801
1.1454830409316789641
1.1453389060398384558
1.145410812414187518
1.1455787139371655936
1.14567312796525278
1.1454955732777962751
1.1450012497064803174
1.1444762057618635964
1.1443247450766182993
1.1447834844148569999
1.1456729052654239798
1.1464801183103623394
1.1467915720229433507
1.1465632588739829156
1.1460538098635082438
1.1456264375009810319
1.1455485986142495136
1.145901121420638491
1.1465096480086489628
1.1470250286462564393
1.1470928679161922492
1.1466156812409993293
1.1457855030123047513
1.1449646385317928665
1.1444674510483727747
1.1443899427386412526
1.1445911680106433117
1.144836245525096885
1.1449691183592460852
1.1449544693291895392
1.1448182359060674607
1.1446043902778517687
1.1443879487120303118
1.144286761562158361
1.1443841366702873774
1.1446637376898427529
1.1449359461540440375
1.1450203526672637633
1.1448892552550316015
1.1446613596077677144
1.1444789014731724386
1.144382058246037337
1.1443131851954808642
1.1442091957936655344
1.1441030871390249768
1.1440881718320436988
1.1441948345284054245
1.14433487287293012
1.1444005180396930044
1.1443841973284329949
1.1443819972998532375
1.1444830655965112509
1.1446714072867520962
1.1448181660732805742
1.1447940261748219548
1.1445457156706988489
1.1441417697867337644
1.1437209224495568094
1.1434190637417380731
1.1433268120709365601
1.1434605956895713685
1.1437765757976945391
1.1441969140918399894
1.1446505805575224457
1.1450944689639142027
1.1455056479260925517
1.1458486295220897677
1.1460669703012218434
1.1461010330779775046
1.1459459343800790787
1.1456678668523587739
1.1453485882658682726
1.145052173866341505
1.1448147240469546126
1.1446611753210844675
1.1446094772233763592
1.1446421866889813224
1.1447240003497345384
1.1448167051560977914
1.1449226306129391961
1.1450249654893458473
1.1450663762268482593
1.1449774766749583055
1.1447476197193215963
1.144439110676182203
1.1441727694336834009
1.1440552227644598116
1.1441333384684864161
1.1443927435006433502
1.1447893673671323267
1.145281899393427727
1.1458585878544509384
1.1465262382312262357
1.1472961229612768097
1.1481640930819216884
1.1491021317895204756
1.150050482047696665
1.1509233891734873545
1.1516458352600029702
1.152196320113182626
1.1526248425984066959
1.1530216444737686476
1.1534513706449813775
1.1538993206488923349
1.1542826861726271925
1.1545132715269694756
1.1545663984107537026
1.1544991919946714365
1.1544047805071799839
1.1543468619507453177
1.1543335107941283812
1.154326535406916765
1.1542779682303501154
1.1541698927070163094
1.1540202458423727272
1.1538675199757368883
1.1537560317481261318
1.1537217327287043744
1.153784234942549114
1.1539360368478202012
1.1541337464919401157
1.1543151011453627319
1.1544268611161070393
1.1544481582331334035
1.1544009045968144367
1.1543323877742948103
1.1542857228520191359
1.154272862823875645
1.1542723590117693888
1.154245530879403292
1.1541653850801079084
1.1510781339670559387
1.1508839524595826376
1.1507720874335745087
1.1507306860613597532
1.1507265327213540562
1.1507308610142858996
1.1507376401829207957
1.1507623547518597285
1.1508267226804103078
1.1509368907205923538
1.1510703469861434112
1.151184074965057702
1.1512374936932112668
1.151213644886761589
1.151122889089076784
1.1509915046905625502
1.1508448287897692364
1.1506950954905679207
1.1505402355100096123
1.1503741392802049326
1.1501947831192287364
1.1500063722012872081
1.1498135676510867764
1.1496156532815249296
1.1494090718504919035
1.1491950020892982565
1.1489885917910418467
1.1488226894908668552
1.1487374203078219992
1.1487604136084392792
1.1488862153849470626
1.149070170270735991
1.1492420497914184185
1.1493349977537494766
1.1493150468061283931
1.1491945354667554291
1.1490233949518693368
1.1488621874182478599
1.1487537597119630295
1.1487080508122582412
1.1487036442398417257
1.1487042627297678887
1.1486816741666643349
1.1486283508687178401
1.1485589201750894262
1.1485018575760850279
1.1484859019631286081
1.148530310939537058
1.1486368933752826305
1.1487860439638524213
1.1489435791393276531
1.1490709160990353332
1.1491362258380746209
1.149125985027289687
1.1490491182769460021
1.1489309032962569113
1.1488046546159047523
1.1487028000356394042
1.1486502964772173918
1.1486618940487771656
1.1487442575911466225
1.1488967389020658949
1.1491093119870681161
1.1493598425193090051
1.1496142770151207557
1.149833118054283343
1.1499832870950210673
1.1500508185398430339
1.1500466319489062172
1.1499981321017440639
1.1499339984696976824
1.1498738448423155845
1.1498256219161984149
1.1497916923286739532
1.1497774831460341183
1.1497957018317424005
1.1498621151119579054
1.1499839967656808604
1.1501487885852468285
1.1503215710393426274
1.1504552232197950978
1.1505080697163367898
1.1504618697003834438
1.1503296974776895389
1.150151385394861947
1.1499791678677417917
1.14986139189706571
1.1498276950327790402
1.1498817675017432016
1.1500031967068224947
1.150158333250491216
1.1503128707305152467
1.1504452134098950289
1.150549053128610888
1.1506304491055916461
1.1506985986089137697
1.150758396127963934
1.1508059433870054811
1.1508325679672761765
1.1508292997472400199
1.1507920229626442676
1.1507257320715695847
1.1506453765205486572
1.1505694085372208946
1.1505130094680486863
1.1504830957687111059
1.1504749926715973629
1.1504764203926589605
1.1504719280350674815
1.1504503595112132164
1.1504075496506560583
1.1503462828839166043
1.1502737454426517072
1.1501978310250353665
1.1501237061822151553
1.1500562654553636577
1.1499998157222961481
1.1499572281474155222
1.1499301822452872024
1.1499168378729698325
1.1499104839086733421
1.1499001142976232881
1.1498735247629225942
1.1498224447711800078
1.1497462873341040002
1.1496544115686664345
1.149563764382026454
1.1494922255919595155
1.1494550439156681065
1.1494590057821834073
1.1495028650989795871
1.1495776516409770274
1.1496697620729072753
1.1497642207723535179
1.1498479558816119273
1.1499104331405212154
1.1499471184690268633
1.149958010418662413
1.1499483703332367135
1.1499278829171792893
1.1499074261986090839
1.1498965036017960717
1.1498998767863126691
1.1499154705919216735
1.1499361486899066787
1.1499524765483140065
1.1499551762317603565
1.1499390876782267235
1.1499053606589824117
1.1498622362140453745
1.149821683333143385
1.1497948939917497224
1.1497881731072432387
1.1498024315582524579
1.1498354888283346398
1.1498853257471122191
1.1499518256828600293
1.1500362072796168622
1.1501397872203291683
1.1502612992279299675
1.1503938497099008842
1.150525481907509473
1.1506425592452595996
1.1507343346719114408
1.1507959901667035307
1.1508304636680120048
1.1508471117095864233
1.1508578585501898495
1.1508732714584530843
1.1508996526303090224
1.1509382622805690577
1.1509865284533866703
1.1510398629892881761
1.1510938988547401163
1.1511448084572417638
1.1511893877214920412
1.1512244369995214832
1.1512451846949320888
1.1512466326157351215
1.1512240458181264291
1.1511766772922495949
1.1511083117245342056
1.1510274199085246405
1.1509440640056143312
1.1508678657413773383
1.1508055421073353219
1.1507591870662328137
1.150726740916399482
1.1507044916807462887
1.1506887047486606956
1.1506784257968858398
1.1506743805382717571
1.1506775409666312182
1.1506861690018037603
1.1506948845060922526
1.150696529931235057
1.1506852107690404008
1.1506593770339874627
1.1506227996581146478
1.1505849307781679247
1.1505596944099198975
1.1505610679524980178
1.1505980795308488052
1.1506722721831745826
1.1507770151715912554
1.150899098841648982
1.1510224180038597375
1.1511324133447644602
1.1512203592352767689
1.1512855555014653852
1.1513345146705200595
1.1513780586655504301
1.1514264697805272064
1.1514851613482242065
1.151552192826009513
1.1516185269545970993
1.1516709400610989356
1.1516957683927586675
1.1516834360246239743
1.1516320399265385088
1.1515476753678086652
1.1514422753560893398
1.1513306562269902678
1.1512264384554147245
1.1511384407389075868
1.1510701125283084867
1.151019995176717492
1.1509833920984513522
1.1509543638676669186
1.1509264301776211958
1.1508939566384916997
1.1508542736377613824
1.1508072517873069174
1.1507534302749582444
1.1506932208432552045
1.1506275246632513554
1.1505577858454816287
1.1504844526065785004
1.150407425253929139
1.1503285325210577117
1.1502515884063377882
1.1501801387799954757
1.1501172547850722072
1.1500666385370614808
1.1500316978447009397
1.1500144714108906374
1.150015656247232565
1.1500350049591423485
1.1500720044924148677
1.1501257517681431342
1.1501940465147957315
1.1502728459091904334
1.1503564644672068518
1.150438091127947482
1.1505099558202085408
1.1530431988475335903
1.1526056280624961126
1.151134101063999271
1.1508886936016129443
1.1509962217499667414
1.1497971543418035179
1.1489560343888138849
1.1497333362351647157
1.1506137688730981861
1.150583833253076893
1.1501348859909881206
1.1499768162445882513
1.1504977450096147695
1.151252060203598937
1.1514487966630695404
1.1509949402025891896
1.1502792068723974861
1.149739665740652006
1.149899347661522242
1.150385256255237687
1.1501311534905014344
1.1490189132943813277
1.1480892305274637
1.1482812034160687631
1.1494507450168163221
1.1504498986588473919
1.1505196145882521375
1.1499411220956359259
1.1491981764656526988
1.1484703072612048036
1.1478696392471448018
1.1475181352206500485
1.1474274064612575152
1.1476288290440077589
1.1481878602855715155
1.1487913859287832707
1.148822224705869699
1.1481256763331062487
1.1472676665350007852
1.1467676799180912539
1.1466471271121216891
1.1467252458864531928
1.1469162568458572959
1.1470349539405584327
1.1468263042908879434
1.1462889739855297577
1.145797019521517246
1.1455425437822210899
1.1453923403056460728
1.1453064827690326855
1.1454443765890043316
1.1458295091966228529
1.1461734356866359885
1.1462305426626557825
1.1460999884262723647
1.1459526073126313772
1.1457321517336749306
1.1453566272929727177
1.1450379060994970715
1.1450333133194077195
1.1453303562262389104
1.1456533195139133596
1.145667300281472345
1.1452941870647221911
1.1447352632973040176
1.1443195202870464211
1.1443189029818323643
1.1448467972946485549
1.145697923894081427
1.1464033200129422063
1.1465848452006150993
1.1462592782020586402
1.1457633914762459515
1.1454515492990797743
1.1455224450619734267
1.1459725408005188019
1.1465806190033991374
1.1470124164805171052
1.1469654593325306902
1.1463745110455876297
1.145488197731639568
1.1447156621185747838
1.1443678093339144652
1.1444805044067709598
1.1448348631066143088
1.1451617185981666225
1.1453047365020709858
1.145237859544744774
1.1449981708695491367
1.1446680334306147397
1.1443794028832361409
1.1442810652691286499
1.1444257345030965922
1.1447031165827143973
1.1449208818211273897
1.1449440609902161725
1.1447707570964180679
1.1445367413333824569
1.1443980830050481945
1.1443914365104310704
1.1444378360710643072
1.1444451922505842756
1.1444059618057786931
1.1443846760777682814
1.1444360738379588671
1.1445309820465716655
1.1446123338210405507
1.1446644466721938027
1.1447087635126018679
1.1447574521616146193
1.1447963727295631386
1.1447983452028367424
1.1447210132859477749
1.1445481811048769938
1.1442896181639914399
1.1439908948084216433
1.143734584212476646
1.1436263851309029782
1.1437353685542945847
1.1440504798807209497
1.1444916881783240292
1.14497749906538826
1.1454505152285956449
1.1458731417972776168
1.1461971703484516993
1.1463551175300845664
1.1463002273294344846
1.1460752494930785961
1.145767576092213913
1.1454627275874484926
1.1451889950766358517
1.1449482516615565597
1.1447681794638622232
1.1446975260510376948
1.1447570156568929178
1.1449063422302871995
1.1450907537854946305
1.1452572906354179239
1.1453584687113569363
1.1453426248072204885
1.1451805449964471695
1.1448914690350346923
1.1445622748074921748
1.144301832536095187
1.1441907830186421879
1.1442558980393389145
1.1444854546014620045
1.144863251824681516
1.1453744388285860278
1.1460120286296004988
1.1467623873549313007
1.1475968077020655134
1.1484810000397818186
1.1493843970029113954
1.150268704893707028
1.1510795440754628682
1.1517584679761971866
1.1522842132603481335
1.1527002156515080422
1.1530912773105272962
1.1535188354287253532
1.1539680753853918116
1.1543546908886068714
1.1545974415214914632
1.1546801337354306582
1.1546591750541255195
1.1546117681617742434
1.1545765189713568244
1.15454244399106698
1.1544794253903889469
1.154363750123192256
1.1541986409287852133
1.1540173984738195667
1.1538624784351105834
1.1537718610894032167
1.1537693985168386845
1.15385878124295993
1.1540260061392890734
1.1542346171031432345
1.1544301526740399222
1.1545619453435862489
1.1546044634209868818
1.1545666837268702132
1.1544846785577045356
1.1544002715503918211
1.1543392135916716867
1.1542946671610363474
1.1542411284648916858
1.1541485322988378481
1.1508361934917339386
1.1506868199483391013
1.1506005821585538751
1.150558948136802373
1.1505353193500909015
1.150514977622135504
1.1505047348604608981
1.1505260538697097417
1.1505967388820885766
1.1507129042939265862
1.1508454011685076424
1.1509536219920573075
1.1510062278817894121
1.1509913797218338516
1.1509169717975165081
1.1507996171991441425
1.1506545115361186404
1.1504920893041281627
1.1503190137665508797
1.1501419527702416712
1.1499687849990134492
1.1498031598431812661
1.1496395982836853378
1.149464412651791001
1.1492651038227850169
1.1490447513844477267
1.1488304816819887577
1.1486685867444637044
1.1486049278505372495
1.1486618097472731659
1.1488214383130843643
1.149027172549708542
1.1492046629974388416
1.1492931686640097677
1.1492683325633878955
1.1491475725896551641
1.1489787487788767351
1.1488161632801796586
1.1486984684053316297
1.1486374710651470199
1.1486197508352196106
1.1486212722713984302
1.1486219301294258166
1.1486137841761381306
1.1486045603117700509
1.1486104627390167909
1.1486479419114561384
1.1487269733501310753
1.148843615048736222
1.1489796833676861887
1.1491085998761194631
1.1492014217219792549
1.1492354969067322124
1.1492027504922730508
1.1491111213277942493
1.1489817659670638061
1.1488448140888725124
1.1487332147072042421
1.1486750635751521443
1.1486892070386764964
1.1487841425690485941
1.1489551921605369866
1.149184359381027587
1.1494415480887498759
1.1496902608896699682
1.1498957860273801845
1.1500351402531112655
1.1501051263949491066
1.1501209809940611262
1.1501053466623170074
1.1500766534412556474
1.1500427677405908877
1.1500039450663910312
1.149962843882490704
1.1499323378572836596
1.1499340028053983698
1.1499893189803553906
1.1501053128329854491
1.1502659631544285279
1.1504318464757077312
1.150554764381045203
1.1505972457975526257
1.150548711109931066
1.1504282909968135407
1.1502783194162942149
1.1501485163200202422
1.1500799512068708985
1.1500919972301295591
1.1501790107411677955
1.1503157250879874063
1.1504686739993286171
1.1506103001794150131
1.1507277239214472875
1.1508229236003872931
1.1509065799068978198
1.1509884166463095756
1.1510697216481595717
1.1511413631193956331
1.1511893638631887082
1.1512022475998620052
1.1511781345640121899
1.1511277336056990883
1.1510689812151677636
1.1510215414793689703
1.1509984191244091445
1.1510011134002298139
1.1510187451921549684
1.1510334726614777079
1.1510274668509532514
1.1509893776550748079
1.1509173375594914379
1.1508175595575611538
1.1507014811127049825
1.150581338862480818
1.1504663337442233573
1.1503631385976502699
1.1502771092203878389
1.1502128430739646525
1.150172872204615393
1.1501555261171760858
1.1501536871072055579
1.1501556770005223473
1.1501480854849777113
1.1501205296665468758
1.1500699484105623149
1.1500026585342477681
1.1499331358544022663
1.1498771274275945142
1.1498487055975068483
1.1498530753292910411
1.149888037417367892
1.1499432116142811466
1.1500059342852784194
1.1500624661860876508
1.1501031195853590461
1.1501229278509537135
1.1501222846316276893
1.1501059749287838585
1.1500804866426845852
1.1500536218849410908
1.1500326863651422205
1.1500223684034920346
1.150025000967151545
1.1500382019403794231
1.1500547001098515576
1.1500659641879187323
1.1500653424949638381
1.1500495783194142341
1.1500198536993024856
1.1499812123182395762
1.1499417376198819429
1.1499094228234154613
1.1498897516201223024
1.1498844681772069087
1.1498937632264716324
1.1499181514242937663
1.1499592988361801993
1.1500200321194196107
1.150102157564312666
1.1502046269897643338
1.1503209429046070689
1.1504391314544115676
1.1505457328153501084
1.1506309961981646683
1.1506923088141303158
1.1507348362207321379
1.1507683196215954258
1.1508030351739133579
1.1508459744172865324
1.1508984639566117725
1.1509563345125846112
1.1510125358585499011
1.151059790490469581
1.1510944082209733086
1.1511157142671932796
1.1511253077159733227
1.1511251285436439051
1.1511156734956375924
1.1510954626677538659
1.1510616010284218103
1.1510121192013595959
1.1509479718832178463
1.1508740017483076734
1.1507966267920157755
1.1507221616636336137
1.1506550426001445064
1.1505979997893431843
1.1505515625312272565
1.1505154824797050317
1.1504900617190843004
1.1504767313448309718
1.1504779071436876947
1.1504943259501061448
1.1505236385513997188
1.1505587092034241792
1.1505894235819111859
1.1506068722456810338
1.1506076268083265113
1.1505953740489158754
1.1505793386853540028
1.1505727027381598138
1.1505894470751392156
1.1506386219209741029
1.1507206688573705655
1.1508272435713802206
1.1509443650478379251
1.1510568850463818169
1.1511532090442522236
1.1512283012844315433
1.1512847078399544021
1.1513311715351961517
1.1513793129251317371
1.1514390043780835526
1.1515144258864515869
1.1516023301348368157
1.1516924043786500587
1.1517702760789190197
1.1518212779772218912
1.1518342777775945063
1.1518046648262973974
1.1517360035425372455
1.1516388236883390306
1.1515275581584407671
1.1514172895220831094
1.1513197023161829691
1.1512408552283748264
1.1511812856555359019
1.151137145673732487
1.1511028080790965955
1.1510726027698965357
1.1510412693330123179
1.1510048064031721538
1.150961499338107874
1.1509118045149042686
1.1508565142553393024
1.1507952164568076014
1.1507274922982468901
1.150653999259519944
1.1505752692959598793
1.1504916804433917843
1.1504054655244826399
1.1503210475313527805
1.1502436174792365353
1.1501781635569170437
1.1501290899028500103
1.1500996749347793813
1.150091923661463067
1.1501065669912067246
1.1501431996723596729
1.1502007553852553468
1.1502769321091705912
1.150367483636122623
1.1504660475918426776
1.1505647621810490833
1.1506552496021946741
1.1507295268382122799
1.1536267884227897618
1.1511668413849511783
1.1508616032068497148
1.1512197366436400792
1.1518309736710770075
1.1514297306321905623
1.1506346363248656228
1.1507503373706720051