/*--------------------------------*- C++ -*----------------------------------*\
  =========                 |
  \\      /  F ield         | OpenFOAM: The Open Source CFD Toolbox
   \\    /   O peration     | Website:  https://openfoam.org
    \\  /    A nd           | Version:  12
     \\/     M anipulation  |
\*---------------------------------------------------------------------------*/
FoamFile
{
    format      ascii;
    class       volScalarField;
    location    "0.013";
    object      alphat;
}
// * * * * * * * * * * * * * * * * * * * * * * * * * * * * * * * * * * * * * //

dimensions      [1 -1 -1 0 0 0 0];

internalField   nonuniform List<scalar> 
75962
(
5.652170209795066945e-07
6.8878203318816849538e-07
7.7597466427402983318e-07
8.3267522914775485915e-07
9.3013849330651864711e-07
1.108201066378557751e-06
1.2638823119414525348e-06
1.3435422962668329969e-06
1.3869925773264779291e-06
1.4696846710613803141e-06
1.6024644064548610988e-06
1.7002065069245914466e-06
1.7500688234375819509e-06
1.7969859588630139193e-06
1.8951512779290080015e-06
2.061781458536202109e-06
2.1720106224411414409e-06
2.2244392032930630761e-06
2.2999262746218331565e-06
2.4158695972389579077e-06
2.5265974369048553297e-06
2.6226163059370135268e-06
2.7338644520874887627e-06
2.8594254467807774742e-06
2.9670678627670561284e-06
3.0386625748166640566e-06
3.0917152693517420688e-06
3.1550905160151220627e-06
3.2319047709010017247e-06
3.2995107937863879305e-06
3.3455030003203032493e-06
3.3848409432867292815e-06
3.4496626052416178035e-06
3.5626149046680500728e-06
3.7196928828914131887e-06
3.8910208291119054998e-06
4.0353752623348047932e-06
4.1275069611747725696e-06
4.1791506323821332034e-06
4.2216872689918583648e-06
4.2818267783380336631e-06
4.3641554310617430639e-06
4.4508844061042379894e-06
4.5275520562438940385e-06
4.5963610093406978929e-06
4.6632753120281487177e-06
4.7230231807419027621e-06
4.7678167381816511449e-06
4.7973401753353220751e-06
4.8223201523727510568e-06
4.8614000081006950428e-06
4.941150150503794894e-06
5.1055302365376580416e-06
5.3198937231896488559e-06
5.5353656513781218548e-06
5.7048083680283924029e-06
5.8054081873888428459e-06
5.8444129548296286266e-06
5.8475780538863204928e-06
5.8401657238289317146e-06
5.8331373111432743852e-06
5.831278495667137544e-06
5.8438719280121175374e-06
5.9016053474957467641e-06
6.0309122753525866664e-06
6.1371944795372834419e-06
6.20579913684768536e-06
6.2430470562480847306e-06
6.2706657942311851063e-06
6.3192738656184231592e-06
6.4248909582485445757e-06
6.580947328198040233e-06
6.7609179107210307569e-06
6.9373492989908544303e-06
7.0812869461329123292e-06
7.1726858683160067511e-06
7.2106786182197410938e-06
7.2130414562622802008e-06
7.2036818295821600268e-06
7.187697247959908227e-06
7.1786292282377315609e-06
7.1778189106828232268e-06
7.200284264839365606e-06
7.2927702729563218252e-06
7.3914741539483415044e-06
7.4427298712745779629e-06
7.4684619059943827227e-06
7.4972755721990206568e-06
7.5499254225361528162e-06
7.6339634284840971059e-06
7.7469777410048316294e-06
7.8787111516354093411e-06
8.013733928030546835e-06
8.1340979787246178885e-06
8.2247131961286391188e-06
8.2785787913127928172e-06
8.3002284425096429994e-06
8.3024762768677823349e-06
8.2975641598176545424e-06
8.2924771436027177321e-06
8.2903567790297480998e-06
8.305008546850741659e-06
8.3816154003473397269e-06
8.5741240345421412534e-06
8.7503229039819759521e-06
8.8861600645129027137e-06
8.9828853937524361567e-06
9.0445475652494478508e-06
9.0787251075675007647e-06
9.0946865342294392021e-06
9.1009773512421407633e-06
9.1064776559301530492e-06
9.1205026798383799172e-06
9.1626346882048733376e-06
9.2565559642361006429e-06
9.34977860658102515e-06
9.4221906763990378872e-06
9.4643984841087043692e-06
9.4781814108667546869e-06
9.4728905027485078009e-06
9.4611819689233361759e-06
9.4412265959760779277e-06
9.4244214444979200576e-06
9.4163183576334132997e-06
9.4148536227590126304e-06
9.4359814061997020446e-06
9.5196986465098630683e-06
9.6350735237832412742e-06
9.741742481885104206e-06
9.8380861834546257138e-06
9.9210782929873958367e-06
9.9896642304562503702e-06
1.0046302738007207656e-05
1.0093040153817768847e-05
1.013191543962454802e-05
1.0164800155142366225e-05
1.0191146038260402558e-05
1.0210103544791493868e-05
1.0219694354566075738e-05
1.0219633763962027124e-05
1.0211089691561523057e-05
1.0198862709495558346e-05
1.0183867068758786084e-05
1.0170583290548337608e-05
1.0161514705412942445e-05
1.0159683696687323663e-05
1.0182397697701434469e-05
1.02701895792914572e-05
1.0378206773815991639e-05
1.0465723177470734456e-05
1.053532648746342761e-05
1.0591220096981690405e-05
1.0639662121546792048e-05
1.0687122665754952079e-05
1.0737142246340488836e-05
1.0790717296495068667e-05
1.0845949038822158981e-05
1.0898563274163715914e-05
1.0942578041167695926e-05
1.0973982597997572472e-05
1.0991032706962099985e-05
1.0995706701204787243e-05
1.0990833348079196024e-05
1.0981796093052181203e-05
1.0969489186311421103e-05
1.0950616561232748628e-05
1.0935876179518208689e-05
1.0926602345793997732e-05
1.0922737508581128712e-05
1.09405265541583097e-05
1.1023518158132524666e-05
1.1132757976832045944e-05
1.1214565275015987415e-05
1.1274448521416522668e-05
1.1319033313103728076e-05
1.1355653086370613166e-05
1.1390237577151039589e-05
1.1428073063575215965e-05
1.1470813272108576291e-05
1.151823220627745606e-05
1.1569316025867559445e-05
1.162045806590698656e-05
1.1668299953729808553e-05
1.1709672331038628506e-05
1.1740984265998865191e-05
1.1760406174267748638e-05
1.1767775010861143662e-05
1.1765698374938277974e-05
1.2430479749751028489e-05
1.2476154547019559316e-05
1.2518492479905786552e-05
1.2556276780400254839e-05
1.2587924742756421143e-05
1.2611854060814766193e-05
1.2626877456671419865e-05
1.2632583593347880733e-05
1.2630102591288104889e-05
1.2622108649605644822e-05
1.2612177612832621343e-05
1.2601879217292327897e-05
1.2587040386129248444e-05
1.2563947636853675066e-05
1.2543459673348535412e-05
1.2525357902109703829e-05
1.2508555342368062047e-05
1.2492105203108757052e-05
1.2475763128720400804e-05
1.2460767314269605505e-05
1.2447320823169926739e-05
1.243661675521509001e-05
1.2427848124237808226e-05
1.2423313187270022036e-05
1.2434785102787587643e-05
1.2498651512135507219e-05
1.2664730624796575377e-05
1.282900736681976203e-05
1.2966796356793360709e-05
1.3076230150591132168e-05
1.3160966167770006793e-05
1.3224601520057792199e-05
1.327036664049906857e-05
1.3299584292806179581e-05
1.3312693423651612281e-05
1.3312068586585672634e-05
1.3303253614832163119e-05
1.3290203422240920057e-05
1.3258757577501781221e-05
1.3166519626920274085e-05
1.303576755684698745e-05
1.2931579377827591884e-05
1.2857629472018089779e-05
1.2810123711577299228e-05
1.2783570158163276028e-05
1.2770126867334178299e-05
1.276221242038199166e-05
1.2762066087384355256e-05
1.2786719847539097938e-05
1.2879944133350643715e-05
1.3001463193103762116e-05
1.3103458517583357694e-05
1.3184100762578964509e-05
1.3242391046970813649e-05
1.3280844281164071107e-05
1.330269442570638495e-05
1.3312707687137571776e-05
1.3314900011824902016e-05
1.3312789351656577436e-05
1.3307793871243524711e-05
1.3301106491450137394e-05
1.329282473881575517e-05
1.327928999027882246e-05
1.324980534872778097e-05
1.3174768639042306652e-05
1.307235962388038079e-05
1.2981970337630700563e-05
1.2906923658576313692e-05
1.2848968849891823313e-05
1.2806729543727370744e-05
1.2778480247172208312e-05
1.2760976876283345926e-05
1.275048678131475358e-05
1.274312536201459555e-05
1.2743220346423508987e-05
1.2769046754680601175e-05
1.2873959771418253621e-05
1.3034380327200359274e-05
1.3168258949430500094e-05
1.327060276645976326e-05
1.3340482512546273243e-05
1.3382051734802411034e-05
1.3401521417619134932e-05
1.3406083167655781261e-05
1.3403004741337510848e-05
1.3396358148454376831e-05
1.3388837902286709734e-05
1.3381269961429241447e-05
1.3372029876694817313e-05
1.3355838029494929695e-05
1.3318325456526522503e-05
1.323075212936500165e-05
1.3128933789198851418e-05
1.3033069936958228036e-05
1.2946949428028647311e-05
1.2873431418503936854e-05
1.2815414034024174349e-05
1.2773289124318849561e-05
1.2745997226767394399e-05
1.2730488394090660857e-05
1.2720698005864110287e-05
1.2719254942287664835e-05
1.274858912031925829e-05
1.2870169189919905705e-05
1.3039769991117312534e-05
1.317591988140036107e-05
1.3277519243167834457e-05
1.3348062091088957058e-05
1.3393014529192229901e-05
1.3419358191489167735e-05
1.3432377162268440286e-05
1.3436329208786926295e-05
1.3433918631686696984e-05
1.3426898032109993786e-05
1.3416631153175809563e-05
1.3405258617091481594e-05
1.3392265054773392065e-05
1.3375566757594550111e-05
1.3348082251472595506e-05
1.3286502506603625493e-05
1.3181140710327341357e-05
1.307592693932862594e-05
1.297699978051001554e-05
1.2889130087299637434e-05
1.2816482196637540763e-05
1.2761488693100123617e-05
1.272527777406671232e-05
1.2704255432994684098e-05
1.2692367849287256365e-05
1.26854383855731579e-05
1.2696954042583891668e-05
1.2771205060371879593e-05
1.2932487383213742759e-05
1.3074040721740492623e-05
1.3186840246924241043e-05
1.3271562019911507921e-05
1.3331625981954041676e-05
1.3371271410836748738e-05
1.3395476609736650227e-05
1.3408539641843149876e-05
1.3413968668622073781e-05
1.3413964602745860732e-05
1.3410314565999816895e-05
1.3403918486645444229e-05
1.3395840698652226977e-05
1.3383897419567130849e-05
1.3358935618792790165e-05
1.3291843669105968335e-05
1.3140793282533972554e-05
1.298910558356209138e-05
1.2859976381480661011e-05
1.2759518964643715554e-05
1.2689447569949821327e-05
1.2647425335012598264e-05
1.2626336900681283158e-05
1.2616538216519226922e-05
1.2613392694204750925e-05
1.2633997402592657278e-05
1.2728753190830009942e-05
1.2877363930396014126e-05
1.3000318022028518975e-05
1.3095905301163534863e-05
1.3165413863361148777e-05
1.3212358364085974763e-05
1.3241744690797878679e-05
1.3258802397209772919e-05
1.3268449615660890653e-05
1.3274890720639288754e-05
1.3280108857591635112e-05
1.3285528997480547359e-05
1.3290259061274656451e-05
1.3293371579188009964e-05
1.3292955470320253069e-05
1.3288177351762120221e-05
1.3280188887908405093e-05
1.3269236217432466571e-05
1.3247732393821993278e-05
1.3190499005023522796e-05
1.3030266654991209759e-05
1.2826592234166910101e-05
1.2657980308400303441e-05
1.2532073227268945896e-05
1.2451465909338488793e-05
1.2409793757739904748e-05
1.2393266919583293523e-05
1.2387896460049552998e-05
1.2410888064737522546e-05
1.2530910068962664223e-05
1.2778511321900180468e-05
1.2989074001830590234e-05
1.3152859490708817609e-05
1.3275748908380826616e-05
1.3369590067997769595e-05
1.3445591116669920926e-05
1.35133942305044959e-05
1.3576996365903164162e-05
1.3634516698765039179e-05
1.3680323797721651686e-05
1.3708530335507906946e-05
1.3717633314767339111e-05
1.3712478766863885358e-05
1.3697493865815241914e-05
1.3650979101422003393e-05
1.3497578937152623785e-05
1.3229869017553731598e-05
1.3011370822335990746e-05
1.2858949689712574906e-05
1.2770130185841219387e-05
1.2730171258464049783e-05
1.2716666134172641318e-05
1.271509792846543246e-05
1.27499786159323435e-05
1.2855956471214704634e-05
1.294553580621083206e-05
1.3002211752198093969e-05
1.3032302694089101477e-05
1.3043758645130383112e-05
1.3044184598325545056e-05
1.3039411683335801306e-05
1.3032708031674283732e-05
1.3025078627668745747e-05
1.3016700000153753663e-05
1.3006955078518257993e-05
1.299333503062007384e-05
1.2967332041057012939e-05
1.2901273219284408239e-05
1.2759738410034278776e-05
1.2618015655904151633e-05
1.2493357975469576661e-05
1.2390738321844954541e-05
1.2311576638442044639e-05
1.2254764505278268385e-05
1.221725375588401183e-05
1.2194332209895576114e-05
1.2180574186805574985e-05
1.2171182586861897289e-05
1.2163945168494157397e-05
1.2162814051998457958e-05
1.2177965771320055366e-05
1.2197335994018491582e-05
1.221103504844830546e-05
1.2219276659055503719e-05
1.2222132098684542823e-05
1.2220401890422335499e-05
1.221508840266772477e-05
1.2207041162861534362e-05
1.2197524285117832874e-05
1.218642210751985774e-05
1.2171193778443241878e-05
1.2144143134302193713e-05
1.2098327970643231197e-05
1.2053592022752752417e-05
1.2011773024059344296e-05
1.1974556124687459735e-05
6.1279804379891774656e-07
7.4309934973324243309e-07
8.6350325739486942792e-07
9.2668784516216224721e-07
9.8700192073925564164e-07
1.1144876980803238531e-06
1.2983831164301071154e-06
1.4285780309770303746e-06
1.5335580130783804792e-06
1.6464345398868077691e-06
1.73985216190482035e-06
1.7920785170117873743e-06
1.8272649763978198927e-06
1.8871470739865700621e-06
2.0208579915451315284e-06
2.1881787467139346908e-06
2.306164260159304868e-06
2.3863517623563233252e-06
2.4593745209444925751e-06
2.5270803599963969633e-06
2.5926386785148557181e-06
2.6880710116448899339e-06
2.8402234414899350199e-06
3.0233882140235229017e-06
3.179616063960885556e-06
3.2695430243520078326e-06
3.303218903151734993e-06
3.3276394876439062966e-06
3.3894382277668040733e-06
3.4948293725844923451e-06
3.5718814850590993083e-06
3.6145487804850129701e-06
3.6580912160932554414e-06
3.7400412823905798253e-06
3.8668808037846372333e-06
4.0164856094486744059e-06
4.160523580179525038e-06
4.2784111527988251164e-06
4.3672599840918372116e-06
4.4426029409885100095e-06
4.5208664807968747783e-06
4.601825354410917701e-06
4.6769661540881660801e-06
4.7468044452176670845e-06
4.821831071462657753e-06
4.9106558638969307406e-06
5.0082217955158423654e-06
5.0988887244822071447e-06
5.1685554465461290503e-06
5.2123989066992294138e-06
5.2444307550995661787e-06
5.2957339279197895884e-06
5.4058441547152632668e-06
5.5741331747742727952e-06
5.7603432053739426618e-06
5.9208037626384138279e-06
6.0270546967224372084e-06
6.0773579593550763176e-06
6.0898211017249550745e-06
6.0874791395034513763e-06
6.0857592623587278345e-06
6.092036600351136731e-06
6.1194638083192971444e-06
6.207612500954062019e-06
6.3751133100865197152e-06
6.5326864882591491473e-06
6.6601839951154462023e-06
6.7457801567388959318e-06
6.7915469530483948786e-06
6.8213536980964948339e-06
6.8734673421083675277e-06
6.9711707864556816689e-06
7.1070045075124534874e-06
7.2572961931146645601e-06
7.3916419720079221792e-06
7.4847659018994615077e-06
7.5293059662321783996e-06
7.5372172640856472777e-06
7.5301223427943755141e-06
7.5208421049827347264e-06
7.515540134141921621e-06
7.520909439294035101e-06
7.5677966048152579413e-06
7.7135370225385941251e-06
7.853465176525143649e-06
7.9491184902663298108e-06
8.011233861935765962e-06
8.0528387865284512437e-06
8.0896842069456456999e-06
8.1373622114246417991e-06
8.2061933870127505276e-06
8.2991422497062036925e-06
8.4073453202639905537e-06
8.5141138197032454856e-06
8.6020847313546924725e-06
8.6601728363346134183e-06
8.6881012455692460032e-06
8.6949735019760530968e-06
8.6928007589814202451e-06
8.6902008383538955575e-06
8.6913794821792078425e-06
8.7091187152409906067e-06
8.7875035742865882844e-06
8.9316622771747732073e-06
9.055489828354888068e-06
9.1533452629741778484e-06
9.2289819782586462961e-06
9.2898642383314175889e-06
9.3455643283313534904e-06
9.4029246099818424931e-06
9.4658712972852432534e-06
9.5348107268770847353e-06
9.6071485755608404354e-06
9.6807094045541977064e-06
9.7507117149490042961e-06
9.8105132402124545904e-06
9.8527451032544558407e-06
9.8737156607359882651e-06
9.8758544628099870617e-06
9.8677544449313043758e-06
9.8547831455132073347e-06
9.8345195379454976309e-06
9.8215816472583028404e-06
9.8153654385824607896e-06
9.8215072615268298058e-06
9.8718236051698454036e-06
1.0021640882301090323e-05
1.0176303991832263293e-05
1.02994270091989664e-05
1.0393427950764452577e-05
1.0463976983375415314e-05
1.0518530103392491985e-05
1.0564716481483015252e-05
1.0605865651192686002e-05
1.0642823591318564548e-05
1.0676022087448526086e-05
1.0703673367393105618e-05
1.0724691409642710455e-05
1.0735922519857835203e-05
1.0736825297577541816e-05
1.0728339037691368932e-05
1.0715592280748510628e-05
1.0700521897019523685e-05
1.0687097589906834497e-05
1.0678170222445293981e-05
1.0676754489670844559e-05
1.0701252782402140287e-05
1.080471225721122711e-05
1.0956302361288062372e-05
1.1074714739717056829e-05
1.1159515291282990463e-05
1.1216537071768974202e-05
1.1257015789627874565e-05
1.1291215239302005682e-05
1.1327955422993970375e-05
1.1369887744260000773e-05
1.1418626093228551437e-05
1.1472027802775348838e-05
1.152516587260972912e-05
1.1571588327353963207e-05
1.1605846509939249381e-05
1.162397166927581049e-05
1.1627331107246132439e-05
1.1620166942248535432e-05
1.1609473219701512607e-05
1.1592815377463061452e-05
1.1573162473557371536e-05
1.1560743699252955729e-05
1.1553141378372141745e-05
1.155712991214618173e-05
1.160124673047250366e-05
1.1675788337499747347e-05
1.1737294407989772382e-05
1.1790031478823375139e-05
1.1838431823135806432e-05
1.1886617179788874391e-05
1.1937704132335576055e-05
1.1993102993891108891e-05
1.2051283987922201791e-05
1.2109623094339681584e-05
1.2166175827657858474e-05
1.2217956441960404516e-05
1.2263022812446526446e-05
1.2299998600382997782e-05
1.2326715471003145852e-05
1.2342391191967524763e-05
1.2347253549450387203e-05
1.2343521342837546369e-05
1.2334937645698142687e-05
1.3115664076344635023e-05
1.3169231494412662753e-05
1.3215422636516090484e-05
1.3252925672281681382e-05
1.3279803548821858338e-05
1.3296309602357456338e-05
1.3302767435173233125e-05
1.3300845207561840311e-05
1.3292667624837536957e-05
1.3281061524049212158e-05
1.3268816022317415232e-05
1.3256175059600536697e-05
1.3241162051388866096e-05
1.3217513221120584112e-05
1.3191312442598028391e-05
1.3166921884552151411e-05
1.3143165380823179647e-05
1.3120021685221404622e-05
1.3097328884348606687e-05
1.307607963449546649e-05
1.3057756803203132741e-05
1.3042877130966810113e-05
1.3031820660032677984e-05
1.302312753106191208e-05
1.3020126304866604268e-05
1.3037999532389006591e-05
1.3124577355183405294e-05
1.3315024586892043886e-05
1.3489142063273743219e-05
1.363316101135918294e-05
1.3746663620583901937e-05
1.3833134809984350664e-05
1.3896493551035990285e-05
1.3940074758412346513e-05
1.3966110263100512803e-05
1.3976432704328395281e-05
1.3973850281745663971e-05
1.3964687245342479664e-05
1.3950439061086169094e-05
1.39144352950273769e-05
1.3811250315897240495e-05
1.3678573360951766586e-05
1.3575614864403742291e-05
1.3504067348968841098e-05
1.3460698253940927448e-05
1.3438199133230290119e-05
1.342701672085834256e-05
1.3422470291265894377e-05
1.3437935372500610558e-05
1.3515709691223077709e-05
1.3654700139270563156e-05
1.3773358941834949336e-05
1.3866080281631112435e-05
1.3932518058385642327e-05
1.3975073601263453176e-05
1.3997726258377308285e-05
1.4005951316009720796e-05
1.4005146106497584556e-05
1.3999898852634429437e-05
1.3992962861168464227e-05
1.3985293561780819956e-05
1.3977218990740895743e-05
1.3967575541078100678e-05
1.3952247147918637766e-05
1.3919437105566702636e-05
1.3838909645757637847e-05
1.373572369710340529e-05
1.3642921999940846222e-05
1.3563969438981285506e-05
1.3501747925687573e-05
1.3455793867935633308e-05
1.3424978623843303739e-05
1.3406318863123762737e-05
1.3395372238503902427e-05
1.3387851275876867706e-05
1.3389042158090376598e-05
1.3420398316460322284e-05
1.3537945896021542647e-05
1.3691422160882636946e-05
1.3817713716807136063e-05
1.3915469201898161112e-05
1.3986585571014223712e-05
1.4035936334633143186e-05
1.4067791623722551304e-05
1.4087574182673779307e-05
1.4097926416212905386e-05
1.4101662857666395827e-05
1.4100141711626539375e-05
1.4094714474797729394e-05
1.4087107762371763793e-05
1.4076149580574780958e-05
1.4054284814604473656e-05
1.3999837902304886801e-05
1.3886531160991203359e-05
1.3771806717476061868e-05
1.36685496863019915e-05
1.3580459547150223559e-05
1.3510845988999051483e-05
1.3460836748667497371e-05
1.3428926291305175015e-05
1.341173188880892272e-05
1.3401661144734468647e-05
1.340035943761823472e-05
1.3431953379655365348e-05
1.3560157164897219899e-05
1.3730743357640052968e-05
1.3865277865931817248e-05
1.3964921249914228295e-05
1.4034018210534972884e-05
1.4078804573649599902e-05
1.4106052683258290753e-05
1.4120617445509832971e-05
1.4126142303249142017e-05
1.412496711173172052e-05
1.411851467287449659e-05
1.4108306913698549841e-05
1.4096706575845279472e-05
1.4083626808339709318e-05
1.4066877531719843187e-05
1.4039203323088192719e-05
1.3977119513387012244e-05
1.3865320686901192991e-05
1.37520335871557039e-05
1.3643562406371790197e-05
1.3545433428745442856e-05
1.3462355130500159114e-05
1.3397815539045682614e-05
1.335365733158719972e-05
1.3327244457060962522e-05
1.3312526143031068836e-05
1.330295354617433991e-05
1.3304510637847822164e-05
1.3345653397488302857e-05
1.3482655746036610329e-05
1.3634697382036170966e-05
1.3760405477543516335e-05
1.3861362829402295457e-05
1.3940396083877861402e-05
1.400150055266913824e-05
1.404815251262340537e-05
1.4083699830047460906e-05
1.4109182376254672281e-05
1.4126176575164998419e-05
1.4133861927694314561e-05
1.4133576140040445755e-05
1.4126813835714822432e-05
1.4116694132485739703e-05
1.4099067158356795598e-05
1.4055811336546164938e-05
1.3932410372685040162e-05
1.3753569344550942933e-05
1.3601948954161223058e-05
1.3485049876323491769e-05
1.3403954250722126683e-05
1.3355554387794987329e-05
1.3331015687459198346e-05
1.3320245255790165179e-05
1.3315412624118723182e-05
1.3330578847563134536e-05
1.3409564743330306443e-05
1.3533893696034704772e-05
1.3636873141538650821e-05
1.3718102739083943382e-05
1.3779946778680794313e-05
1.3824683389357630601e-05
1.385658961816269709e-05
1.3879161830553832341e-05
1.3896581608490552622e-05
1.3911592460381302995e-05
1.392609072137807238e-05
1.3940115916699755391e-05
1.3952796677452235303e-05
1.3962544509169088245e-05
1.3967112942349539377e-05
1.3965491047203539243e-05
1.3958217946471326528e-05
1.3947782965969013775e-05
1.3930695470956547705e-05
1.3889492336789052593e-05
1.376763616088806915e-05
1.3552317858111664371e-05
1.3364675153712010067e-05
1.3221492119126007438e-05
1.3127086104525451441e-05
1.3076928768528244752e-05
1.3056755856000798788e-05
1.3049340118155597189e-05
1.3063270354312240661e-05
1.3152925051121788324e-05
1.3410721061113030028e-05
1.3666881432457498536e-05
1.3861485589898244031e-05
1.4000413156954762519e-05
1.4096812237144547544e-05
1.4167209214913895434e-05
1.4226174881350465062e-05
1.4282931398018466004e-05
1.4337793392008553266e-05
1.4385321485926111997e-05
1.441754659222914788e-05
1.4430420243526523934e-05
1.442655288482071378e-05
1.4412956167379387573e-05
1.4374718317947549547e-05
1.4249902257105037767e-05
1.3979859298015190824e-05
1.3747141937124540139e-05
1.3582689800077966678e-05
1.3485700935223353283e-05
1.3441196906424984965e-05
1.3425946181772779693e-05
1.342251843086985452e-05
1.3451192173720974481e-05
1.3549546260789169718e-05
1.3637906532971107908e-05
1.3693703768079360186e-05
1.3723112375912012711e-05
1.3734117836596458834e-05
1.3734125312249861013e-05
1.3728865898979379865e-05
1.3721658863899256569e-05
1.3713780044563370002e-05
1.3705112825885524364e-05
1.3695596827172766167e-05
1.3683544516899198804e-05
1.3662931667841425457e-05
1.3614552974586292426e-05
1.3492480537885994779e-05
1.3345677344263912547e-05
1.3215655114069486313e-05
1.3106972448153401099e-05
1.3021978792511145574e-05
1.2959780398699923901e-05
1.2917667527335761795e-05
1.2891145036494278044e-05
1.2875033621519139148e-05
1.2864281437795153151e-05
1.2855831543436639958e-05
1.2850796974960150058e-05
1.2856202179209475701e-05
1.2867647583320908355e-05
1.2874948415699322409e-05
1.2877678279103105984e-05
1.2876220694321770409e-05
1.2871279668218965061e-05
1.2863451463050127799e-05
1.2853884393559608735e-05
1.2843028955756658562e-05
1.2829074222556945763e-05
1.2806244378366571439e-05
1.2764005239154067826e-05
1.2718620806470831692e-05
1.267697375420154493e-05
1.2639203086684204009e-05
1.2606136825769722937e-05
6.1718981885758370671e-07
7.6888882318981348281e-07
8.6304115699610062339e-07
9.1999873796796866239e-07
1.0086933966775756934e-06
1.1944357820486626178e-06
1.3525625616486097705e-06
1.4263087587414390798e-06
1.5061077962030104812e-06
1.6531331856933730112e-06
1.7854560526615580636e-06
1.8498276979861903476e-06
1.9001759834330431051e-06
2.014104044682863319e-06
2.1663294674224282171e-06
2.269943881286864548e-06
2.3681151404952213115e-06
2.4865681606292274841e-06
2.5900949817156974087e-06
2.6515608942674235166e-06
2.6959640041830594645e-06
2.7750685009212114259e-06
2.9355811059017790864e-06
3.1268842534330295281e-06
3.2791068634082017887e-06
3.3601257018853999155e-06
3.3953527818813647306e-06
3.4493906833985943707e-06
3.5683938590338748216e-06
3.6913620047748506573e-06
3.777996532879834928e-06
3.8359835189533134783e-06
3.8952755741713390047e-06
3.9752383719699721892e-06
4.0751976042463389457e-06
4.1904735826741849015e-06
4.3226143678845226702e-06
4.4687257037652627656e-06
4.6143713455700497336e-06
4.7392209093122153029e-06
4.8309385377540000554e-06
4.891538312058429759e-06
4.936118786713010539e-06
4.986808731952159755e-06
5.0608843294045644478e-06
5.1568873725708977237e-06
5.2541240544083287782e-06
5.330838927499802935e-06
5.3812514959992646316e-06
5.4171747548518187841e-06
5.4628066706661544371e-06
5.5457322244481245906e-06
5.6809215306681074697e-06
5.8574720266913527292e-06
6.0404265749952271367e-06
6.1902568196683623643e-06
6.2852756262393250094e-06
6.3281418619314623787e-06
6.3377748918486230268e-06
6.3360855602444540472e-06
6.3371343584664569955e-06
6.3510626908537592676e-06
6.4027369612663701028e-06
6.549649304839641802e-06
6.7410878354427811282e-06
6.9138629348830441302e-06
7.0486525367659834789e-06
7.1350239383645067516e-06
7.1789111798163271507e-06
7.2027396739928123005e-06
7.2387931689914425764e-06
7.3278801224402981702e-06
7.4847289868251553588e-06
7.6451435572534400979e-06
7.7769005197006850358e-06
7.8609035958815385334e-06
7.8963122552751258159e-06
7.8992445771104462455e-06
7.8908729007237206945e-06
7.8806139432813748747e-06
7.8759009040433707862e-06
7.8894739755556152363e-06
7.9721426952352624e-06
8.1824045587744341946e-06
8.3629480578254049723e-06
8.4866455438513332482e-06
8.5599591927943961844e-06
8.5943542709507112209e-06
8.6053668510570154233e-06
8.6125773188252866642e-06
8.6327848593458714893e-06
8.6964983901168058051e-06
8.827326521098306775e-06
8.9531683969845608345e-06
9.0507027685520345553e-06
9.1099642264707170208e-06
9.134395989903025965e-06
9.1372446133885461869e-06
9.1318756526910797362e-06
9.1261890633427016946e-06
9.1244798918549455634e-06
9.1430834280082155764e-06
9.2211456923746738519e-06
9.3149330816028473221e-06
9.3927921146468317014e-06
9.4631232514848838362e-06
9.5325890470858609573e-06
9.6066045950154798456e-06
9.6884194448626379187e-06
9.7780449737846572301e-06
9.8742219034610355729e-06
9.9748088792914499601e-06
1.0076967569077198398e-05
1.0177562656902341479e-05
1.026911242793223339e-05
1.0342859153939545948e-05
1.039052775752384041e-05
1.0411452256661840837e-05
1.0411689732446057933e-05
1.0403024438207727307e-05
1.0388783860618898031e-05
1.0376825035000387709e-05
1.0372069252868564558e-05
1.0392881599611675429e-05
1.0496865423423186838e-05
1.0643625733897327332e-05
1.0748307466464756654e-05
1.0819454240762978845e-05
1.087266002741220948e-05
1.0924548258940805962e-05
1.0985823789443780599e-05
1.105882885219570437e-05
1.113846800590480826e-05
1.1213574227798682069e-05
1.1276245258678307569e-05
1.1319937982407869825e-05
1.134449469077429948e-05
1.1351679968382506796e-05
1.1347027831367994949e-05
1.1336622393662178419e-05
1.1316799820733248886e-05
1.1285995219024962637e-05
1.126212829012653153e-05
1.1248525555278437958e-05
1.1242937442414037798e-05
1.1258455959249855116e-05
1.1347332932347553924e-05
1.1539015237340525963e-05
1.169444897173804615e-05
1.1802720909176985865e-05
1.1870401657374362588e-05
1.1910358081717082224e-05
1.1935953861720753009e-05
1.1958231292894897646e-05
1.1984146545841522919e-05
1.2016836967586230477e-05
1.2057284107466149974e-05
1.2105011275656942307e-05
1.21578025952700435e-05
1.2209341217793950293e-05
1.2253405590825215517e-05
1.2283304336598332475e-05
1.2295831705261776591e-05
1.2294169021721988995e-05
1.2284545112553157441e-05
1.2271929854763418368e-05
1.225317548733534243e-05
1.2239714801386567737e-05
1.2230729955949429897e-05
1.2229876691129391739e-05
1.2260432844076310564e-05
1.2341247707841249454e-05
1.2412674815757335955e-05
1.2471956618473847329e-05
1.2523861086884293227e-05
1.2573518914214650623e-05
1.2624385860314885926e-05
1.2677917599379586152e-05
1.2733396241964085435e-05
1.2789103632846276254e-05
1.2843266650089142029e-05
1.289375143994963218e-05
1.2938253847137461846e-05
1.2974813108657917135e-05
1.3001432002554945901e-05
1.3016938207667622945e-05
1.3021678734674551126e-05
1.3017818592115032797e-05
1.3009144101777374105e-05
1.3777804051622390507e-05
1.384226920871768648e-05
1.3899332011328161134e-05
1.3945915136714179662e-05
1.3979775160489881574e-05
1.400082059942556008e-05
1.4009914075813012532e-05
1.4009283685680096163e-05
1.400166600605998418e-05
1.3990167373710424769e-05
1.3977680145877318922e-05
1.3963591258854202094e-05
1.3943795552706736524e-05
1.390927637886972288e-05
1.3872691431689393457e-05
1.3839237028329434462e-05
1.380871270475516455e-05
1.378139286677826917e-05
1.3758109138982515385e-05
1.373884544104307041e-05
1.3724538100840657527e-05
1.3713744611876798349e-05
1.3705979148139370695e-05
1.3709087054035233613e-05
1.3747612611056569517e-05
1.387552504022653108e-05
1.4034241126593550428e-05
1.4179782513922407601e-05
1.4310421386710827187e-05
1.4424126668367295785e-05
1.4522994346958578019e-05
1.4608135086478862832e-05
1.4680185833349061674e-05
1.4736776586447001801e-05
1.4774213908945108337e-05
1.4791077821652941752e-05
1.4790050061184214494e-05
1.4780182578995598792e-05
1.4759703866420599878e-05
1.4697853059247964236e-05
1.4546355858439535496e-05
1.4404354140357018222e-05
1.4303355876277413199e-05
1.4240658141903339006e-05
1.4208148628428197359e-05
1.4193391910205117507e-05
1.4187319394410040536e-05
1.4204229313464411457e-05
1.4287928523719669105e-05
1.4410328252277773771e-05
1.450960729982116908e-05
1.4586384550488544758e-05
1.4642124294934560458e-05
1.4680272126031095189e-05
1.470439688599670347e-05
1.4718220592364658815e-05
1.4725010245248702686e-05
1.4726625877675655646e-05