/*--------------------------------*- C++ -*----------------------------------*\
  =========                 |
  \\      /  F ield         | OpenFOAM: The Open Source CFD Toolbox
   \\    /   O peration     | Website:  https://openfoam.org
    \\  /    A nd           | Version:  12
     \\/     M anipulation  |
\*---------------------------------------------------------------------------*/
FoamFile
{
    format      ascii;
    class       volScalarField;
    location    "0.013";
    object      pMean;
}
// * * * * * * * * * * * * * * * * * * * * * * * * * * * * * * * * * * * * * //

dimensions      [1 -1 -2 0 0 0 0];

internalField   nonuniform List<scalar> 
75962
(
99672.71905293087184
99673.334084071320831
99673.089652323717019
99672.941798380459659
99672.902887066476978
99672.782796682615299
99672.596579285367625
99672.358747378166299
99672.084407429181738
99671.775522999159875
99671.429446674825158
99671.062472920792061
99670.675199042307213
99670.241269126257976
99669.763553482232965
99669.289388159348164
99668.843859421947855
99668.405451628030278
99667.946985808477621
99667.458726794735412
99666.946329017737298
99666.422821165717323
99665.910251795459772
99665.421108884213027
99664.943309001697344
99664.46511774272949
99663.994521285247174
99663.539152169949375
99663.092288761021337
99662.649188807190512
99662.208738242698018
99661.765045621301397
99661.314718403955339
99660.867889189743437
99660.434507568526897
99660.012078117390047
99659.593184705270687
99659.177675183236715
99658.769155049390974
99658.36934028408723
99657.977991936859326
99657.593739389674738
99657.213424571920768
99656.833554198805359
99656.453021935376455
99656.075157339073485
99655.706487167699379
99655.352159319780185
99655.010476626368472
99654.671755131581449
99654.326819336274639
99653.974757448522723
99653.621493858896429
99653.271083977408125
99652.924708344580722
99652.581496214625076
99652.239907826777198
99651.901068166698678
99651.570498411601875
99651.255205766763538
99650.954989961799583
99650.661089890825679
99650.362744991653017
99650.055575083737494
99649.744642077203025
99649.438737816482899
99649.14138149037899
99648.847863339222386
99648.551016715951846
99648.248533577192575
99647.944529813816189
99647.644721972857951
99647.350378531002207
99647.05660937630455
99646.759677927562734
99646.462647243053652
99646.173366905422881
99645.89820480531489
99645.636245136964135
99645.381406964181224
99645.127831979945768
99644.87170001368213
99644.611085856406135
99644.347923948807875
99644.08644990871835
99643.831039126671385
99643.581431170925498
99643.332985024215304
99643.080885076531558
99642.825218089288683
99642.569804734128411
99642.317375577404164
99642.068611297290772
99641.82525819708826
99641.59090556720912
99641.368361619737698
99641.15588930422382
99640.9478954578517
99640.738523367908783
99640.524529921851354
99640.306456159130903
99640.086567846432445
99639.866569450750831
99639.645751191463205
99639.422527047499898
99639.196902241601492
99638.972261824237648
99638.753427252333495
99638.542279362256522
99638.3362430530251
99638.130131398080266
99637.920475410486688
99637.707533263674122
99637.493363036264782
99637.279346306997468
99637.065935424951022
99636.853888262092369
99636.645182797175949
99636.442712558477069
99636.249148988994421
99636.065226200415054
99635.888733852450969
99635.71620112551318
99635.544307933741948
99635.371404865160002
99635.198703164453036
99635.028853679148597
99634.863615883645252
99634.702049608560628
99634.540752022861852
99634.375694075162755
99634.204541002240148
99634.028559961356223
99633.852507322837482
99633.681081410148181
99633.51617591115064
99633.355680720400414
99633.195599030237645
99633.03350379805488
99632.870380251784809
99632.710297799567343
99632.557958064804552
99632.41565407262533
99632.282157834561076
99632.154375864993199
99632.028900076489663
99631.902548368554562
99631.772742341054254
99631.637146475739428
99631.494968416285701
99631.347177113770158
99631.19647732366866
99631.045156654785387
99630.894909350026865
99630.745779383985791
99630.596780469772057
99630.446673982718494
99630.294976935983868
99630.142005389076076
99629.988024977385066
99629.83332866699493
99629.678579962594085
99629.524719303008169
99629.37318583970773
99629.225747563905315
99629.083560743238195
99628.946449933675467
99628.813397632868146
99628.683224958876963
99628.554655047089909
99628.42683666490484
99628.298799202108057
99628.169577870576177
99628.038299914303934
99627.90428879763931
99627.766998774764943
99627.626067177916411
99627.481582994543714
99627.334128469970892
99627.184645716552041
99627.034078394222888
99626.883659902465297
99626.734718282750691
99626.588194528158056
99626.44482512200193
99626.30484409215569
99626.167329914344009
99626.030789309515967
99620.293640526695526
99620.14810521734762
99620.003802752238698
99619.859785705513787
99619.71515427751001
99619.569601083348971
99619.42359125384246
99619.278221932749148
99619.134696999011794
99618.993683302178397
99618.854950429129531
99618.717646670964314
99618.580812671032618
99618.443749915997614
99618.306391945821815
99618.169037269079126
99618.032029356239946
99617.89562100173498
99617.759663338365499
99617.623934459814336
99617.48827254823118
99617.352518683983362
99617.21658632956678
99617.080436057294719
99616.943857110149111
99616.806428842202877
99616.66751837101765
99616.526385064600618
99616.382417360349791
99616.235686698666541
99616.08735201980744
99615.939428535566549
99615.794273036459344
99615.654096204452799
99615.520358243971714
99615.393267504812684
99615.271809748956002
99615.153912422319991
99615.03721373990993
99614.919725162908435
99614.800406146227033
99614.679152784912731
99614.556450128759025
99614.432710466091521
99614.307939939622884
99614.181655294916709
99614.053459147573449
99613.923480566998478
99613.792528148958809
99613.661837620893493
99613.532591873954516
99613.405527834707755
99613.280539114944986
99613.156871774684987
99613.033481015998404
99612.909281368483789
99612.783472590846941
99612.655700117815286
99612.525943804517738
99612.394486962381052
99612.261792169330874
99612.128481787789497
99611.995331770172925
99611.863230502043734
99611.733125322803971
99611.605534621368861
99611.480107492214302
99611.355756283752271
99611.230915480511612
99611.104158682894194
99610.974688681744738
99610.842606469246675
99610.708789511641953
99610.574167425467749
99610.439194134232821
99610.303679715565522
99610.166787217691308
99610.027657022757921
99609.885819528310094
99609.74162791314302
99609.59625858340587
99609.451547454693355
99609.309245914919302
99609.17042765430233
99609.03527405425848
99608.903007565939333
99608.772188474671566
99608.641258034127532
99608.508999077792396
99608.374879557886743
99608.23890472628409
99608.101700787578011
99607.964151944805053
99607.827128453238402
99607.691363735066261
99607.557244176132372
99607.424771882026107
99607.293612204361125
99607.163312781252898
99607.033415778525523
99606.903518443461508
99606.773246313547133
99606.642024893313646
99606.50922851737414
99606.374253622590913
99606.236550995381549
99606.095821762064588
99605.952157086881925
99605.806011477296124
99605.658059608584153
99605.509146336233243
99605.360241645743372
99605.21237044245936
99605.066359250922687
99604.922768662276212
99604.781836760783335
99604.643474316093489
99604.507343325312831
99604.37295156516484
99604.239609859403572
99604.106408188323257
99603.972278264991473
99603.836221839941572
99603.697534768565674
99603.555928877627593
99603.411664003069745
99603.265385444450658
99603.117900486307917
99602.970032891971641
99602.822461527423002
99602.67567458821577
99602.52991285729513
99602.385273689724272
99602.241882581263781
99602.09976792553789
99601.95887753921852
99601.818975607180619
99601.679564668069361
99601.539872370412922
99601.399051804284682
99601.256438785916544
99601.111636235189508
99600.964623730847961
99600.815679819890647
99600.665279460750753
99600.513984053526656
99600.362281834182795
99600.210375350114191
99600.058241794875357
99599.9056958383444
99599.752447773513268
99599.598132233528304
99599.442454138683388
99599.285194023352233
99599.126275317539694
99598.965710897857207
99598.803555726582999
99598.640012710355222
99598.475453948660288
99598.310441742898547
99598.145598685921868
99597.98164435120998
99597.819150457697106
99597.658443386782892
99597.499349621139118
99597.3412477360107
99597.183212265430484
99597.024177231985959
99596.86310926747683
99596.699229310339433
99596.532116446353029
99596.361751588789048
99596.188446214247961
99596.012726082757581
99595.835232305180398
99595.656638617932913
99595.477450090722414
99595.298108138274984
99595.118945343856467
99594.940237041853834
99594.762061128567439
99594.584270551873487
99594.406576121109538
99594.228571655621636
99594.049820815649582
99593.870023387105903
99593.68918868478795
99593.507717836240772
99593.326293401725707
99593.145610441759345
99592.966176081143203
99592.788079518883023
99592.610923461426864
99592.433884216836304
99592.2558425913885
99592.075688736324082
99591.892529777353047
99591.705962466425262
99591.516089115146315
99591.323458176761051
99591.1289648678503
99590.933684463045211
99590.738557650154689
99590.544182642712258
99590.35082130387309
99590.158386855109711
99589.966616945617716
99589.775197990369634
99589.583887034459622
99589.392636428630794
99589.201617957471171
99589.011175869629369
99588.821710976990289
99588.633547034201911
99588.446920062473509
99588.261960142015596
99588.078688913563383
99587.897087834367994
99587.717172392178327
99587.539030493993778
99587.362770091422135
99587.188513545363094
99587.016402603127062
99586.846563389524817
99586.679003288954846
99586.513659796968568
99586.350424666510662
99586.189298302357201
99586.030463269809843
99585.874357375418185
99585.721631718697608
99585.573137032595696
99585.429892344691325
99585.292903428475256
99585.163067825575126
99585.041094678468653
99584.92750514135696
99584.822606579749845
99584.726505794227705
99584.639193656184943
99584.560575725117815
99584.4905676827766
99584.429157085469342
99584.376505909778643
99584.33303231051832
99584.29937792198325
99584.276329350133892
99584.264780287223402
99584.265681620163377
99584.279960489890072
99584.308500532482867
99584.352134410219151
99584.41161372156057
99584.487601233064197
99673.582933035038877
99673.797319967401563
99672.814106737496331
99672.741801906013279
99672.776096210203832
99672.643281546595972
99672.454169689663104
99672.236116486339597
99671.979234196915058
99671.68003076883906
99671.335538376151817
99670.964475328029948
99670.572879118233686
99670.140876778052188
99669.673582952076686
99669.211752101313323
99668.769105218307232
99668.323127734023728
99667.85936710293754
99667.377292207325809
99666.874985676709912
99666.357122192639508
99665.846532185620163
99665.364036628350732
99664.900054698795429
99664.434983104991261
99663.9741778858006
99663.525932871212717
99663.085248597519239
99662.646799745998578
99662.207339487067657
99661.759993129831855
99661.30480045999866
99660.852147863173741
99660.411507175842416
99659.98068567053997
99659.555259391927393
99659.135028390533989
99658.724309392215218
99658.325615705281962
99657.940972407479421
99657.567815721093211
99657.198333823398571
99656.823352327861357
99656.439855736243771
99656.054439684477984
99655.678778217872605
99655.318242028908571
99654.968384274849086
99654.621203511109343
99654.271339054146665
99653.919968995032832
99653.57083437484107
99653.226564950629836
99652.887896295884275
99652.552489305802737
99652.217160197222256
99651.881945857676328
99651.553455206376384
99651.23908009067236
99650.939184844188276
99650.645746774564032
99650.348484720816487
99650.041655491688289
99649.728006473582354
99649.417258392946678
99649.115502346438006
99648.819042481452925
99648.51969159989676
99648.214157087728381
99647.906937935040332
99647.604853572905995
99647.310920877644094
99647.021306948343408
99646.730809885426424
99646.441163976880489
99646.158236466246308
99645.886617320604273
99645.625162301206728
99645.369574873620877
99645.115003150553093
99644.858352483846829
99644.599386682399199
99644.340107958734734
99644.083418543843436
99643.831442659400636
99643.582548646023497
99643.332330923061818
99643.07798541590455
99642.82026680544368
99642.563017860215041
99642.309332368211471
99642.061056138496497
99641.820528216194361
99641.590191244235029
99641.370539136129082
99641.158778134384193
99640.94968696696742
99640.738474833589862
99640.52245742296509
99640.302187550478266
99640.080596203886671
99639.860829859899241
99639.643156985257519
99639.424918194941711
99639.203732730966294
99638.98139007941063
99638.762804587124265
99638.550685750713455
99638.343144669081084
99638.134482273919275
99637.919964204338612
99637.699631463910919
99637.477046523417812
99637.256402310988051
99637.040227052682894
99636.829870469096932
99636.625651694543194
99636.427695280668559
99636.236190849347622
99636.051015530276345
99635.870958536950639
99635.693964356629294
99635.517684480393655
99635.341414822411025
99635.166838800330879
99634.996835420388379
99634.833153962346842
99634.674323126702802
99634.516409666917752
99634.35488275399257
99634.187152925936971
99634.014527020393871
99633.841185579483863
99633.671556262022932
99633.507689145044424
99633.347750518863904
99633.187782073015114
99633.025113650466665
99632.860976441792445
99632.70018606139638
99632.547508171308436
99632.405175548323314
99632.271780573501019
99632.14380563350278
99632.017379255019478
99631.88941400112526
99631.757531519979239
99631.619908172564465
99631.476547564496286
99631.329307368461741
99631.181183654480265
99631.034664287100895
99630.890918188568321
99630.749381486995844
99630.608322060405044
99630.465962014466641
99630.321043697156711
99630.173164432650083
99630.022735949067282
99629.87100161302078
99629.719756832913845
99629.570630022120895
99629.424734110914869
99629.282824168141815
99629.145152475059149
99629.011357528725057
99628.880771417942015
99628.752889139330364
99628.626842448007665
99628.501318040682236
99628.374647255142918
99628.245060270870454
99628.110809616060578
99627.97095977832214
99627.826162157653016
99627.678013783108327
99627.528483028887422
99627.37906310937251
99627.23023384922999
99627.081618974858429
99626.932938156562159
99626.784355197800323
99626.636537652462721
99626.490315867238678
99626.346172526697046
99626.203764539939584
99626.062181884364691
99625.92070425748534
99620.46241828861821
99620.311586656738655
99620.162414349324536
99620.014796254763496
99619.868302109578508
99619.722250500417431
99619.576053176191635
99619.429878847950022
99619.28453443122271
99619.141154561701114
99619.000631534232525
99618.862801751820371
99618.726768882683245
99618.591400620643981
99618.455666787922382
99618.319050945501658
99618.181552739697509
99618.043685332624591
99617.906133439697442
99617.769157156246365
99617.632468827985576
99617.495865362434415
99617.359334861059324
99617.22287765108922
99617.086469232235686
99616.949778066744329
99616.812253290685476
99616.673211394634563
99616.531893265986582
99616.38788940628001
99616.241645981019246
99616.094322849749005
99615.947717345188721
99615.803833904472413
99615.664457651088014
99615.530766201816732
99615.402800523297628
99615.279467250904418
99615.158929197554244
99615.039193035787321
99614.918643979093758
99614.796650062853587
99614.673469297980773
99614.549873343828949
99614.426264639696456
99614.30244755934109
99614.177626660617534
99614.051061029938865
99613.922528934752336
99613.792631840566173
99613.662599187271553
99613.533696096084896
99613.4068014947552
99613.28193641891994
99613.158256537426496
99613.034561670632684
99612.909798647771822
99612.78332045240677
99612.6549485973228
99612.524877881965949
99612.393478681289707
99612.261323911137879
99612.128996634113719
99611.997167949972209
99611.866621207183925
99611.738138356929994
99611.612009336211486
99611.487762679709704
99611.364081415697001
99611.239305797527777
99611.112003679270856
99610.981507501011947
99610.848172250349307
99610.713092566875275
99610.577406911295839
99610.441688021019218
99610.30577610139153
99610.168961180825136
99610.030423601609073
99609.889799507509451
99609.747537725445
99609.604808231830248
99609.463167178328149
99609.324021124484716
99609.1880516588717
99609.05510156332457
99608.924307396402583
99608.794465614264482
99608.664347406695015
99608.53308234103315
99608.400401512524695
99608.266493310278747
99608.131947709989618
99607.997601325929281
99607.864144497565576
99607.732049612997798
99607.601404579167138
99607.472030703778728
99607.343533420120366
99607.215563423465937
99607.087852384778671
99606.960114112400333
99606.831954543929896
99606.70280151728366
99606.571954609797103
99606.438713204770465
99606.302622628078097
99606.163571859855438
99606.021796703993459
99605.877905382905737
99605.732665943680331
99605.587020195263904
99605.441921307166922
99605.298215012662695
99605.156537500064587
99605.017156668982352
99604.88010156834207
99604.745115875717602
99604.611758385479334
99604.479522083653137
99604.347772667300887
99604.215708420000738
99604.082492339468445
99603.94737659295788
99603.809901094326051
99603.669965134846279
99603.527889095872524
99603.384300586491008
99603.24001719368971
99603.095798973037745
99602.952211621610331
99602.809531896724366
99602.667865111856372
99602.527327489457093
99602.388089051557472
99602.250240706373006
99602.11366823258868
99601.97804912130232
99601.842744893147028
99601.706791463584523
99601.56923471330083
99601.429320590992575
99601.286670034591225
99601.141357857879484
99600.99391242855927
99600.845181711731129
99600.696072403981816
99600.54733876431419
99600.399335633468581
99600.252020573927439
99600.105034352629445
99599.957702821717248
99599.809265167888952
99599.659083978753188
99599.506755881695426
99599.352189129262115
99599.195555544720264
99599.037296773371054
99598.878054629676626
99598.718634988123085
99598.559934076314676
99598.402772493631346
99598.247826216364047
99598.095411152331508
99597.945397941890405
99597.797295951124397
99597.650177132440149
99597.502817865082761
99597.353926583571592
99597.202387677738443
99597.04751796524215
99596.889111281459918
99596.727435921566212
99596.563107613343163
99596.396882681088755
99596.229593039373867
99596.061944944915012
99595.894317354483064
99595.726967391237849
99595.560034513284336
99595.3936409522139
99595.227750856050989
99595.062143426592229
99594.896431074812426
99594.730128933835658
99594.562836673212587
99594.394313304306706
99594.224693072494119
99594.054498200654052
99593.884483812507824
99593.71544668385468
99593.54795327364991
99593.382211558156996
99593.217937789246207
99593.054443541215733
99592.890740902381367
99592.725748366050539
99592.558588638872607
99592.388813922458212
99592.21649139811052
99592.042181243916275
99591.866761844372377
99591.691192515048897
99591.516300632167258
99591.342609961197013
99591.170350849395618
99590.999468244059244
99590.829716142223333
99590.660760574683081
99590.492385441437364
99590.324573669902747
99590.157509580909391
99589.991490833228454
99589.82687441559392
99589.663992564455839
99589.50314182593138
99589.344572535774205
99589.188535271430737
99589.035210018380894
99588.884695130924229
99588.73705657577375
99588.592316218331689
99588.450402827220387
99588.311170742599643
99588.174450355290901
99588.040088549721986
99587.908000616866047
99587.778227836766746
99587.650936246223864
99587.526545768225333
99587.405617251279182
99587.288933980831644
99587.177433777513215
99587.072153525557951
99586.974106372450478
99586.884150222060271
99586.802944783150451
99586.730906347802375
99586.668269896326819
99586.615129557801993
99586.57146217225818
99586.537194117408944
99586.512270668637939
99586.496721659379546
99586.490713423278066
99586.494601790269371
99586.508919943007641
99586.534361828438705
99586.571736384983524
99586.621901326419902
99586.68570725772588
99586.763975890920847
99586.857455217643292
99586.966826535004657
99587.092701883841073
99670.759574430063367
99672.023904657995445
99671.918933075008681
99671.929817451062263
99672.034574593708385
99672.01569045431097
99671.894680748533574
99671.730381904199021
99671.545029432978481
99671.311904541755212
99671.00868376926519
99670.660205759326345
99670.280675516987685
99669.875557764011319
99669.450733146019047
99669.020655803076806
99668.590551828892785
99668.144374118899577
99667.679093740545795
99667.212707873477484
99666.739467450461234
99666.243950159783708
99665.744685993515304
99665.268299269679119
99664.809029330033809
99664.3469462635112
99663.887404468056047
99663.447109617976821
99663.026924057412543
99662.613847586326301
99662.193082872603554
99661.756093388903537
99661.304526448133402
99660.846922428332618
99660.393789136011037
99659.949862913505058
99659.517168425576529
99659.095725790946744
99658.683577841031365
99658.279711095849052
99657.887491938541643
99657.510109242866747
99657.142998464536504
99656.775531547842547
99656.400402771832887
99656.02051373408176
99655.644731959328055
99655.278349297208479
99654.921210337910452
99654.5712204004667
99654.227501811576076
99653.889761692218599
99653.555045473229256
99653.220384792468394
99652.88585082582722
99652.551279491832247
99652.215440145257162
99651.878329936458613
99651.545781603039359
99651.224774531903677
99650.918133777202456
99650.621412294218317
99650.325792007031851
99650.023395870273816
99649.71352225348528
99649.403267886198591
99649.100587410328444
99648.805478168724221
99648.510336163672036
99648.20957076868217
99647.905687930891872
99647.605265975900693
99647.312675377586856
99647.026144455536269
99646.741458763630362
99646.456648532912368
99646.174158012217958
99645.897310102824122
99645.628257129268604
99645.365994740321185
99645.107847129373113
99644.851216629598639
99644.595657411045977
99644.342228074849118
99644.092376658256399
99643.845850078898366
99643.600829728777171
99643.35445451567648
99643.105327086203033
99642.853853441367391
99642.602003341322416
99642.351999499238445
99642.106508215045324
99641.867730104640941
99641.636582932856982
99641.41301555854443
99641.194713938515633
99640.978618188746623
99640.760692221563659
99640.539252818896784
99640.315520229167305
99640.092543115926674
99639.872988992821774
99639.656813052090001
99639.440491408284288
99639.221137856235146
99639.000053309762734
99638.782678478470189
99638.572621629398782
99638.367438709872658
99638.160222474325565
99637.944471308437642
99637.719540397069068
99637.490468154472183
99637.264071128054638
99637.045293036688236
99636.835557293568854
99636.633836499997415
99636.438172799447784
99636.246853181844926
99636.058943715834175
99635.874186795394053
99635.692095597958541
99635.511194846083526
99635.330914272082737
99635.152753824120737
99634.979999715375016
99634.814908927175566
99634.65657735876448
99634.501350161677692
99634.344699731402216
99634.183414067301783
99634.016979367414024
99633.84768717046245
99633.679064917261712
99633.512998203572351
99633.34921632744954
99633.186218616858241
99633.022584487232962
99632.859781228253269
99632.701960323291132
99632.55272050970234
99632.412952021913952
99632.28035971809004
99632.150876591564156
99632.021335097044357
99631.889708613292896
99631.754898885730654
99631.616355664038565
99631.474604521485162
99631.331111356135807
99631.187829421978677
99631.046609458499006
99630.907950441818684
99630.771348596375901
99630.635327221927582
99630.497824026737362
99630.356837081024423
99630.211768184090033
99630.063669473034679
99629.91477761582064
99629.767686213002889
99629.624399409120088
99629.485431704553775
99629.3501688917313
99629.21788522702991
99629.087833472629427
99628.95975673191424
99628.833908146436443
99628.709989371142001
99628.586445313485456
99628.460548978036968
99628.329539191967342
99628.191079318203265
99628.044527333753649
99627.89168595414958
99627.735913103708299
99627.581066849466879
99627.429453993725474
99627.281004504591692
99627.134113820415223
99626.987165509417537
99626.839150841609808
99626.690245571007836
99626.541170658369083
99626.392396854091203
99626.244353806454455
99626.097261814764352
99625.951682330793119
99620.482038527741679
99620.326239148358582
99620.172682427262771
99620.022009061111021
99619.874072561258799
99619.728099168554763
99619.583034282361041
99619.438366995294928
99619.294321774563286
99619.151667564932723
99619.011414173233788
99618.874011276697274
99618.738965016877046
99618.604886026063468
99618.470183154684491
99618.333778829983203
99618.195604702181299
99618.056376739536063
99617.916868511732901
99617.777716512980987
99617.639273151173256
99617.501627649064176
99617.364665394401527
99617.228160610873601
99617.091840300228796
99616.955187927218503
99616.817573449356132
99616.678245747170877
99616.536724503661389
99616.39310903675505
99616.248058495228179
99616.102695672350819
99615.958451242971933
99615.816852373594884
99615.679185228742426
99615.546065682865446
99615.417243274685461
99615.291642705356935
99615.167742583478685
99615.044076503210817
99614.91972222152981
99614.794793386710808
99614.669916876897332
99614.545740324960207
99614.422338841410237
99614.299236195089179
99614.175437006837456
99614.049984611221589
99613.922584295680281
99613.793690471386071
99613.664478282953496
99613.536240358938812
99613.409832387784263
99613.285273988120025
99613.161731358399265
99613.038000228814781
99612.913052867617807
99612.78628956573084
99612.657671416483936
99612.527661903659464
99612.396899371888139
99612.265967974046362
99612.135469621236552
99612.005971068982035
99611.878063585667405
99611.752178212875151
99611.628203254178516
99611.505333786917618
99611.382117563291104
99611.256909182106028
99611.128516083044815
99610.996467851815396
99610.861313528715982
99610.724298781162361
99610.586710613104515
99610.449390238587512
99610.312484530557413
99610.175629968638532
99610.038061729312176
99609.899410490645096
99609.759971069754101
99609.620732253228198
99609.482803049540962
99609.347110320144566
99609.21401837245503
99609.083216929895571
99608.953867983393138
99608.825001548000728
99608.695703187258914
99608.565415175413364
99608.434097240431583
99608.302155461962684
99608.170275853291969
99608.039184375811601
99607.909341412276262
99607.780935438830056
99607.653901732337545
99607.527895098610315
99607.402448748325696
99607.277148340217536
99607.151651804480935
99607.025738526834175
99606.899212171774707
99606.771646380133461
99606.642418372081011
99606.510842974181287
99606.376532294365461
99606.239465615159133
99606.099954901859746
99605.958701879455475
99605.81661956149037
99605.674670765612973
99605.533740052691428
99605.394596997706685
99605.257690785336308
99605.123051468413905
99604.99042494938476
99604.859346951008774
99604.729268686191062
99604.599596583138919
99604.469674011867028
99604.338888176527689
99604.206670632687747
99604.07260996021796
99603.936533136846265
99603.798543886397965
99603.659138620263548
99603.519000771848368
99603.378786375804339
99603.23889438835613
99603.099518111121142
99602.960659662159742
99602.82241932261968
99602.685019519863999
99602.548720610167948
99602.413829282959341
99602.28037826588843
99602.148014785634587
99602.016063189294073
99601.883463621983537
99601.749094557089848
99601.612029226933373
99601.471750128854183
99601.328405930064037
99601.18277979803679
99601.036038992606336
99600.889395880367374
99600.743768011539942
99600.599639901614864
99600.456975758788758
99600.315231302884058
99600.17342053395987
99600.030495408631396
99599.88565801193181
99599.738459074025741
99599.588841751552536
99599.437142841648892
99599.284098261385225
99599.130742062683566
99598.978206983243581
99598.827526292647235
99598.679494250594871
99598.534612228206242
99598.392870629904792
99598.25379219937895
99598.116495919355657
99597.979844735411461
99597.842522919352632
99597.703273047955008
99597.561149532935815
99597.41564170482161
99597.266781828220701
99597.115047864455846
99596.961183199920924
99596.806098681001458
99596.650572426369763
99596.495134761702502
99596.340035993634956
99596.18539228271402
99596.031267650265363
99595.877638063888298
99595.724343954614596
99595.571087427801103
99595.417544906129478
99595.26331746498181
99595.108028350499808
99594.951497006317368
99594.793837044227985
99594.63552374333085
99594.477332422495238
99594.320129931671545
99594.164593110821443
99594.01103551533015
99593.859353116655257
99593.709042142523685
99593.559275648542098
99593.409153300031903
99593.257977950692293
99593.105415254234686
99592.951551587917493
99592.796828272053972
99592.6419435988646
99592.487683025974547
99592.334688986185938
99592.183389953614096
99592.033972608303884
99591.886335060495185
99591.740205809895997
99591.59528231951117
99591.451343500666553
99591.308318197261542
99591.166302353027277
99591.025545268959831
99590.886381154356059
99590.749211817135802
99590.614463859848911
99590.482584684970789
99590.354013533113175
99590.2291228537797
99590.108130442473339
99589.991073279088596
99589.877882630826207
99589.768327426965698
99589.662025685975095
99589.558529209156404
99589.457476838535513
99589.358734875844675
99589.262408882277668
99589.168829068541527
99589.078575268475106
99588.99244084233942
99588.91142499880516
99588.836575620458461
99588.768868122249842
99588.709208159663831
99588.658439715771237
99588.617253373522544
99588.586131304356968
99588.565281979812426
99588.554667399395839
99588.554130046220962
99588.563529876628309
99588.582781401128159
99588.611946998542408
99588.651255253658746
99588.701070731010986
99588.761897582313395
99588.834327132251929
99588.918987099168589
99589.016542950441362
99589.127694357681321
99589.25314190107747
99589.393582628588774
99589.54969381535193
99589.722144705679966
99589.911599045764888
99671.475505385096767
99672.476182970160153
99672.22532961271645
99672.046202146098949
99672.044350622425554
99672.051688373641809
99671.935558223514818
99671.736616333248094
99671.524245488908491
99671.268193234063801