/*--------------------------------*- C++ -*----------------------------------*\
  =========                 |
  \\      /  F ield         | OpenFOAM: The Open Source CFD Toolbox
   \\    /   O peration     | Website:  https://openfoam.org
    \\  /    A nd           | Version:  12
     \\/     M anipulation  |
\*---------------------------------------------------------------------------*/
FoamFile
{
    format      ascii;
    class       volScalarField;
    location    "0.013";
    object      rho;
}
// * * * * * * * * * * * * * * * * * * * * * * * * * * * * * * * * * * * * * //

dimensions      [1 -3 0 0 0 0 0];

internalField   nonuniform List<scalar> 
75962
(
1.1627543982728463234
1.161483743148315595
1.1625304135981127107
1.1625192423416912391
1.1635705990974656299
1.1643595122562035993
1.1641843345409212951
1.1640303540778651481
1.1638192382386685075
1.1635789293186631355
1.1629166382438624883
1.1622056645812954834
1.1626973075771807054
1.1642653147655859236
1.1650994893586938961
1.1646243758820093994
1.1640033111032437318
1.1639193234360882823
1.1641344566854772147
1.16441828904696143
1.164723667969975951
1.1647223605191137086
1.1642534127680566058
1.1638015467541178438
1.1637549629858794376
1.1636506480501733751
1.1631968530425054187
1.1628348773811592043
1.1627725767012382363
1.1628708289723381775
1.163211678333529564
1.1638806826252918736
1.1644573082423856913
1.1645436399588049436
1.1642921617805117585
1.1640874574375952299
1.1639763790262338539
1.1638848385798756802
1.1638703426348790959
1.1640353648943768672
1.1643589407538721403
1.1647821071687385341
1.1652415006687515397
1.1656067555345119846
1.1657273803452365968
1.1655148593397863799
1.1650135176881180055
1.1645144969445431204
1.1643931665971041234
1.1647727890127363981
1.1653607200633762098
1.1657660548754587015
1.1658633283707908745
1.1657893550506017721
1.1656907826474736112
1.1656918256268724576
1.1657989932351895401
1.1658309836559219708
1.165624788142522128
1.1652427603893238395
1.164955588836018352
1.1649834573445061459
1.1652964515254782274
1.1656440226943671767
1.1657758133980191673
1.1656973216809267679
1.165645748652696545
1.1658243628379612034
1.1661693739449603413
1.1664508731702327715
1.1665264496292400143
1.1664829716549032224
1.1665225398819629721
1.1667184410709727782
1.1669276326119439879
1.1668914329094155491
1.1665578139355021747
1.1660906499233867351
1.1657393817338532749
1.1655696115233598054
1.1655462014043287411
1.1656087601593834169
1.1656844381622133433
1.1656818564934678939
1.1655554010171460533
1.165380878591604441
1.1653119118697885526
1.1654039517824110739
1.1655341711648521397
1.1655376369612990839
1.1654037517401085733
1.1652343946031120669
1.1650751692047518482
1.1648607923077587412
1.1645449720809251115
1.1642091663062654749
1.1639870732372745721
1.1639429856938430241
1.1640455145463586284
1.1641876142477634026
1.1642844540037307066
1.1643140673931324791
1.1643272975506231415
1.1643877996112039774
1.1644824471831212165
1.1645072539956751179
1.1643798279544814722
1.164149007463975094
1.1639748862413912267
1.1639813036523161127
1.1641691805449738695
1.1643978279932241104
1.1645538978613088066
1.1646334805818561176
1.1646881958596440043
1.1647480995727534925
1.1647850481890145158
1.164733529637873799
1.1645527117080152202
1.1642621712395062605
1.1639302613914113138
1.1636460728225690442
1.1634707836082236465
1.1634057064608900323
1.1633874321667931895
1.1633347565314153815
1.1632307947766122869
1.1631253525257794212
1.1631047226980502085
1.1632121061457938449
1.1634284667862353491
1.1636556457140063703
1.1637782829527258954
1.1637588656068693638
1.1636535706847208615
1.1635786280512323554
1.1636188321235074739
1.1637544752548565352
1.1638549810141225471
1.1637752864945838382
1.1634586830493767184
1.1629855384883609482
1.1625126985257361323
1.1621750174915699283
1.162018292200228009
1.1620196414152206277
1.1621232004840174046
1.1622782932170934167
1.1624297553295015462
1.1625074124172321
1.1624742983626263904
1.1623498209715235063
1.162212437618539429
1.1621453279804865311
1.1622064286658313481
1.1623824455902052044
1.162609661421311058
1.1628148132553626226
1.1629521778026497003
1.163009649588053529
1.1630015312436772223
1.1629408509041487818
1.1628382460486608174
1.1627006862715509872
1.1625475565595577709
1.1623991138401053025
1.1622765889291966079
1.1621736974750873639
1.1620798714715974143
1.1619809561064236014
1.1618772427794084035
1.1617689757366544967
1.1616837779982558398
1.1616345476627725208
1.1616384952708407319
1.1617027627818519164
1.1618290790210239471
1.1620025383920562501
1.1621909688808917949
1.1623547053632370396
1.1624510165519392757
1.1624447366219856637
1.1623254679283074875
1.1621080195467621277
1.1618352665104128008
1.161568292162412197
1.1613661918517790284
1.1612645799873242414
1.1584529378391339449
1.158497750012774663
1.1585308019077278363
1.15854438317389552
1.1585219552605439119
1.1584428765156808971
1.158294893530314118
1.1580908464094505916
1.1578715027583392772
1.1576929378021132422
1.1575976172039130763
1.1575968901059459082
1.1576612713470528782
1.1577403415455296276
1.1577885561452996299
1.1577812656775858802
1.1577189530698568376
1.1576199561838376173
1.1575092701654616789
1.1574065709360852328
1.1573228912144124525
1.1572599879559093417
1.1572164662078134878
1.1571906925403223632
1.157185033734358548
1.1572015717606285445
1.1572417745746352846
1.1572976384663395955
1.1573558742365339658
1.1573974432979892146
1.1574023249113485345
1.1573623989622825459
1.1572839977031510461
1.1571863216872830815
1.1571007889905313704
1.1570578297164195725
1.1570757532614630581
1.1571476502217892257
1.1572402862545618785
1.1573038732304126164
1.157292266602222286
1.1571854776499157502
1.1570037210822534668
1.1567965010463370223
1.1566226444720471012
1.1565253220196933803
1.1565099426562626128
1.1565578021759885807
1.156630521102427922
1.1566955519279289444
1.1567339027714835797
1.1567466111132476136
1.1567433967938567374
1.1567347012496458358
1.1567316011312134272
1.1567448554551476025
1.1567829343316429203
1.1568568776885745919
1.1569744246052380277
1.1571312966814184531
1.1573074181881026767
1.157470344847216559
1.1575801999479000681
1.1576042572111102658
1.1575316325847593291
1.1573791450656880642
1.1571858126284044754
1.1569978666708269355
1.1568517619850071654
1.1567621555505362974
1.1567238932699328569
1.1567197044666313044
1.1567369309783381848
1.1567751886192334521
1.1568414076935233936
1.1569412956636242473
1.1570654326113882782
1.1571878439698910501
1.1572716991701945677
1.1572826262560398369
1.1572076172234950775
1.157062538531020035
1.1568909278782748551
1.1567451898951255362
1.1566726565611338273
1.1566999179256967079
1.1568239461816001157
1.1570117161921706916
1.1572099931890362789
1.1573648014988258126
1.1574330675872313012
1.1573948992480538323
1.1572541763052377473
1.1570392138951914873
1.1567861813813278271
1.1565307159061530839
1.156297484984287971
1.1560976489989924776
1.1559296448085925046
1.155784328381088244
1.1556524944117800846
1.1555292266565362347
1.1554151251876725315
1.1553167493677198863
1.1552428128444958144
1.1552014321716330691
1.1551947675655209746
1.15521855810333407
1.155261790544396705
1.1553096104668332256
1.155345654567706104
1.1553555519423963638
1.1553288728825985565
1.1552629424045219864
1.1551620134432494247
1.1550347088043717569
1.154895020073100298
1.1547582091329922083
1.1546430516239460928
1.1545670052283776297
1.1545388155052127566
1.1545595596446258657
1.1546161923591733434
1.1546862130541655223
1.1547395920614424991
1.1547490729411120647
1.1546992145177774614
1.1545896444919694357
1.1544341384979941445
1.1542538950609437798
1.1540694059909859526
1.1538960341568942347
1.1537414176132185784
1.1536086629911999069
1.153500755798753552
1.1534240673701079416
1.1533875053166762203
1.1534020200590033856
1.1534740838990533707
1.1536013921224157475
1.1537726042077116606
1.1539664812124925675
1.154160526309880197
1.1543354527117952735
1.1544773840607795989
1.154580801153435976
1.1546456910738276402
1.1546773016044971083
1.1546803533454130797
1.1546604874279993158
1.1546221244751806445
1.1545699856897786439
1.1545111864371118138
1.1544517260164843808
1.1543992050062028554
1.154357888958220224
1.154326806789049531
1.1542999360404968545
1.1542675000765416637
1.1542180113476712133
1.1541424663672390505
1.154037738402923674
1.1539099800660272965
1.1537738738394116567
1.1536516406034369453
1.1535660690525821881
1.1535336239790550117
1.1535604340514120647
1.1536428660687310099
1.1537673483658503759
1.1539129777578636116
1.154059215057647636
1.1541889937527232135
1.1542899158907724555
1.1543514809359964879
1.154367319582798812
1.1543305802152317163
1.154238609802289206
1.1540928319555527892
1.1539021130258626524
1.1536797874305786404
1.1534444896631605992
1.1532167549688039365
1.1530097647810972905
1.1528287655752096352
1.1526698672731778839
1.1525228796182902524
1.1523787480724665411
1.1522350309050370942
1.1521022279265178412
1.1520024426991561928
1.1519651520106430898
1.1520169697609263793
1.1521777782226640952
1.1524488416160145743
1.152812507142198406
1.1532340348953595832
1.1536637490517134275
1.1540467442069144433
1.1543351108344725997
1.1544941293298667251
1.154510140187838374
1.1543918137351523168
1.1541650093010338285
1.1538697609841725988
1.1535494283092679879
1.1532437893476614743
1.1529819554048237329
1.1527804702013733085
1.1526444087460803178
1.1525706148799204076
1.1525537829741263618
1.1525883057524748398
1.1526693249447672596
1.1527926312587275515
1.152952288497761657
1.1531380066581822241
1.1533352932512270783
1.1535272490274699475
1.153696689995807878
1.1538294422486266022
1.1539165442383196858
1.1539566240265701769
1.1539548880480554605
1.1539199236225829992
1.1538627866808437439
1.1537944295128215177
1.1537211994705858231
1.153647010899647718
1.1535725631472970587
1.153497759078807583
1.1534235365129716921
1.1533532972673827821
1.1532929176386632619
1.1532485274819450627
1.1532262140267250938
1.1532314798523983779
1.153263970932045579
1.1533208379408077526
1.1533945961682310344
1.1534761832244460056
1.1535537483866120656
1.1536158685621256126
1.153650783828816806
1.1536483458871089613
1.1536008865604141516
1.153502886119748716
1.1533538330268180427
1.1531572565910561678
1.1529212432040190084
1.1526574888598286606
1.1523810229306890029
1.152108690551603809
1.1518563629585081287
1.1652429380249087476
1.1651102374576465248
1.1644770711789911299
1.1637269867213742014
1.1637418825442953363
1.1630381962565250475
1.1627289823588362605
1.1630670848943096551
1.1631749475952217754
1.163405303865356677
1.1635758565831066935
1.1633576102629024085
1.1636895063249095283
1.1647309453780985145
1.1651617469197272925
1.1646436459673952246
1.164277848036742613
1.1644569095738901421
1.1645649016793246933
1.1646116628716081109
1.164873542595240119
1.1649040158431833714
1.164301802994795576
1.1636722932289396137
1.1636406649461386031
1.1637029307422339652
1.1633024414789077117
1.1627577265966024811
1.1624571451550711476
1.1624604377563945157
1.1629408764364779216
1.1638637435001835119
1.1646796716161245122
1.1649478854701611485
1.1648239367667989619
1.1645847851385495719
1.1642740027068056996
1.1639214002681810278
1.163721603225799317
1.1637333296780316694
1.1638941983483035436
1.1642038138383998813
1.1646988371205959645
1.1652782169156927772
1.1656469090467163063
1.1655662843104637183
1.165101505481351607
1.1646308339411559629
1.1644978489458626125
1.1647309433017827285
1.1650932356644749799
1.1653183585452169257
1.1653591646931871217
1.1652799018945736442
1.1652128943955810669
1.1652887532982558749
1.1655076234472288021
1.165676724224158578
1.1656021716273705646
1.1653378821588165071
1.1651223719349641517
1.1651495874961481647
1.1654346360797369631
1.1657975036501768695
1.1659895481949440477
1.1659515082788454166
1.1658909084969342196
1.1660532088536872397
1.1664072422022377928
1.1667146244776471775
1.166780705882163538
1.1666717420936076888
1.1666063008513503085
1.1667160265107157091
1.1668818985808055988
1.1668824529401176093
1.1666408170278452783
1.1663022666954823148
1.1660396012441187619
1.1659016263134263092
1.1658619642303653663
1.1658450761887924063
1.1657943661447927042
1.1656863291146917216
1.1655446660623700605
1.1654443282858526487
1.1654743285344653092
1.165625936256778683
1.1657652403892970749
1.1657695727106871519
1.1656260942368901201
1.1654181460015875516
1.1651937628521140677
1.1649343232244784296
1.1646336136697039709
1.164352949085679656
1.1641786977205230702
1.1641561956343768891
1.1642593379844843327
1.1643960747967760927
1.1644620069862090528
1.1644175238816347751
1.1643264405092150771
1.1643000129484912808
1.1643730570312977868
1.1644487205326659041
1.1643987837711045064
1.1642072464483110839
1.1640337781540912587
1.1640580903420449932
1.164310268911780577
1.1646541406458232881
1.1649138883352945228
1.1650017189649539695
1.1649354756571874692
1.164798792079298595
1.1646485249750306856
1.1644908767461954469
1.1643160474469478327
1.1641179379735846489
1.1639044055201808181
1.1637133132598813656
1.1635906247813629921
1.1635393101182431863
1.1635090272016461732
1.1634242512378181189
1.1632727989074276298
1.1631254967425159741
1.1630763796182495007
1.1631742550614454501
1.1633930587076104501
1.1636243365668650362
1.1637652870225592139
1.1637747591996492336
1.1637007820890503673
1.1636597082185426988
1.1637342213647459133
1.1638988418602114194
1.1640124660051902605
1.1639247916234496394
1.1635920764947997874
1.1631073730722703008
1.1626472385975978874
1.1623501969979124215
1.1622533533053831523
1.1623225776722310165
1.1624889499895676437
1.162674756779950247
1.1628100920518744665
1.1628224805948892406
1.1626822844110862309
1.1624428479508059908
1.1621937870062541975
1.1620409451276385582
1.1620446178882000154
1.1621922123278698447
1.1624206139490276257
1.1626535400574162793
1.1628272378826172151
1.1629020406923151754
1.1628659955587496988
1.1627415982155195895
1.1625677802837914854
1.1623914687361764919
1.1622405099536694539
1.1621259491178004275
1.1620382622784319882
1.1619602350350735076
1.161877714559508723
1.1617919163944374628
1.1617291705821695125
1.1617163606715434909
1.161766074395340631
1.1618683039284247727
1.1619951737990659169
1.1621156511648167431
1.1622096286662650932
1.1622761274663251374
1.1623325181091719305
1.1623896394753456818
1.1624382565837139136
1.1624430106690786246
1.1623618051056363587
1.1621782587963982447
1.1619221975568116978
1.1616541111935760888
1.1614347661342174778
1.1612982148648458569
1.1612390683084155008
1.1583784566241126512
1.1584229139759480987
1.1584417302997118693
1.1584353209873572421
1.1584028050409933552
1.15833826064851797
1.1582287848106540551
1.1580631268211278861
1.1578458217776650407
1.1576076468981257861
1.1573993729905949213
1.1572719450165613875
1.1572506815007927994
1.1573206991335793781
1.1574364622860997542
1.1575391877829144249
1.1575854946103523169
1.1575624788321063896
1.1574810612026049661
1.1573735336020860576
1.157268324555284611
1.1571852185504625243
1.1571323082102926705
1.1571085736862145588
1.1571103568619587332
1.1571349091213263272
1.157175959228861295
1.1572261534649537218
1.1572724795932336495
1.157299988480983588
1.1572955711646553123
1.1572524067249321256
1.1571767681271352135
1.15708321202670672
1.1569946583045034316
1.1569384992104614351
1.156936973955375203
1.1569969599255867099
1.1571040791304161299
1.1572188215870318206
1.1572847599081910186
1.157256990505609151
1.1571195971836967242
1.1568971509171943612
1.1566517500126820561
1.1564507917099773326
1.1563447086412208531
1.1563394719582262837
1.1564092280685593916
1.1565083852116564422
1.156595742354437073
1.1566484823247882296
1.1566653994746138867
1.15666021328048374
1.1566474390071672662
1.1566387042656982587
1.1566420932864323046
1.1566639050208689099
1.1567122019082038964
1.1567957428192365832
1.1569158382350082093
1.1570597283650305709
1.1572040353438530769
1.1573132142103708109
1.1573554711027245201
1.1573169397316498408
1.1572102789962022129
1.1570675528716807268
1.156928404340995753
1.1568235235106671954
1.156765593602822717
1.1567457566204242259
1.1567493243806954428
1.1567688836329230728
1.1568058974299393338
1.1568691704519247221
1.1569604352056159779
1.1570679684817928301
1.1571610979563307087
1.1572029229089715319
1.1571631670285191795
1.1570404671145331221
1.1568589488906768636
1.1566688080763338764
1.156525177975796792
1.1564696840920731802
1.1565188203542446921
1.1566594688457192408
1.1568526258275468876
1.1570427688724478354
1.1571741238449131384
1.157209146455913551
1.1571344511288677026
1.1569635553967940744
1.156729567169842321
1.15647378279768831
1.156231725024882584
1.1560263268613508725
1.1558650786721655912
1.1557399629914448802
1.1556379074750604552
1.1555462023609877065
1.1554582839220526314
1.1553741181333803123
1.1552988881788528452
1.1552411881478072964
1.1552060021381556076
1.1551944366333188885
1.1552021618452454899
1.1552217818222747514
1.1552410244874691259
1.1552491755356100178
1.1552361778114119684
1.1551956824420153147
1.1551271058564658301
1.1550333213636609919
1.1549204948878322163
1.1548002336750931018
1.1546863315102473546
1.1545925107724550607
1.1545331555829352332
1.154517216997916762
1.1545431970979582736
1.1545990719469791941
1.1546614480409893577
1.1547038606424258056
1.1547025832753661234
1.1546458417594347434
1.1545362756465269438
1.1543883707188753451
1.1542232329451500572
1.1540595778962383644
1.1539067157225095794
1.1537673627760338668
1.1536421690550646701
1.1535338232280762938
1.1534521084884319375
1.1534111828613717865
1.1534257143683945834
1.1535045532539691671
1.1536459526462534697
1.1538347840596663296
1.1540435999092604202
1.1542427100691845521
1.1544068093753074855
1.1545201013640729037
1.154579297374766389
1.1545917183796852168
1.1545700752879934914
1.1545323244278813402
1.1544912261754465277
1.1544568286644762978
1.1544328418923164303
1.1544184602068348067
1.1544115826675360736
1.1544076654944792626
1.1544004284290119156
1.154382203769159787
1.1543449310939797314
1.1542823111514821655
1.1541899049194932481
1.1540660536750084741
1.1539182831786596317
1.1537608855629459814
1.1536123414365924145
1.1534971400591698121
1.1534332006751955024
1.1534313771081599054
1.1534921876476125213
1.1536043135707767515
1.1537468422143843938
1.1538942109219270105
1.154026027546066091
1.1541275427654447139
1.1541934835255109881
1.1542216064968076061
1.1542133869779880317
1.1541673251033517378
1.1540844881600342831
1.1539682853259565221
1.1538230325673985988
1.1536608140678406009
1.1534945089024195575
1.1533379461367574415
1.1532024805266463119
1.1530864511200082934
1.1529822549612100957
1.1528774894973392584
1.152761173620825641
1.1526307644582844958
1.1524967182714387359
1.1523818845238162911
1.1523177486209783549
1.1523347069991278779
1.1524540761686543622
1.1526806843199068897
1.1529969642474267033
1.1533670433492735352
1.1537406341896354611
1.1540663529540537979
1.1543009783132518464
1.1544150998977864564
1.1544001921979525349
1.1542695733006438363
1.1540519017706303284
1.1537839607281539234
1.1535029072935463201
1.1532378321177740865
1.1530102327160856035
1.1528323838374294752
1.1527073905830931277
1.1526343457972909601
1.1526122705830335047
1.1526387868414178506
1.1527114117354400058
1.1528259798631110833
1.15297367052889288
1.1531432453728267529
1.1533203231462836325
1.1534907529253872749
1.1536408398580551005
1.153760702140794514
1.153845055487382254
1.1538946738424558092
1.1539125040940119149
1.1539031034813256316
1.1538724457756828201
1.1538252703839537716
1.1537641211089695314
1.1536932367322667581
1.1536120630101540652
1.153524529800642684
1.153435706760259194
1.1533528078537784722
1.1532845255677435237
1.1532395442269216534
1.1532239975725124825
1.1532411886300151238
1.1532901199786655955
1.1533640780882636889
1.1534530374042977208
1.1535440900372768702
1.1536239614986842916
1.1536794167446917658
1.1536992807691650587
1.1536748776237106817
1.153601120453994433
1.1534769672138471819
1.1533046628109488996
1.1530909431975098212
1.1528457716853892645
1.1525810606132349534
1.1523094411694709827
1.1520443250015834913
1.1517981253053846125
1.1656269464590598428
1.1663797972679927906
1.1647951511097787147
1.1636235399563226167
1.1627309217866430568
1.162421491211153457
1.1631649529951020305
1.1635466185581737619
1.1634524388118259175
1.1641176306356084691
1.1646796077385830337
1.1644891389090408218
1.1643197417565533947
1.1645348983904579843
1.1649425384092202407
1.165209574873053322
1.1654600973071094216
1.1656070937620577332
1.165198854119975147
1.1645907510439992283
1.1646334468906107684
1.1649678846423112688
1.1646733755819251854
1.1640834651425864266
1.1639805708899522152
1.1640585323630738834
1.1636239013101039586
1.1628688780902660671
1.1623911347200588384
1.1624676133978879555
1.1630406787789862033
1.1639369868737334812
1.1647739721744594377
1.1652055373746563749
1.1651771337551386498
1.1647788688799287637
1.1642318929216692869
1.1637847885432290873
1.1635935679082727301
1.1635844796127858825
1.1636852062391389584
1.1639176573442044926
1.1643567228783298084
1.164943869048676417
1.1653807988646895932
1.1653994464913495221
1.1650792116991088854
1.1647410901125367921
1.1645937597455422452
1.164629507370204653
1.1647071546317757651
1.1647510011008925801
1.1647615377758879784
1.1647421963955566504
1.1647602135755459329
1.1649157990929319695
1.1652394095700342458
1.1655376499899090526
1.1656068958686611747
1.1654347566114728885
1.1652088961225723907
1.1651579730537398039
1.165397655878312122
1.1658281013481526234
1.166179376228626996
1.1662738590014720685
1.1662239152978495227
1.1662806344853591245
1.1665509962582654158
1.1668559762202816987
1.1669622460367929939
1.1668438924867328144
1.1666916661601329785
1.1666703376081180021
1.166762390273059502
1.1668369977095764956
1.1667968897706959552
1.1666610310854268473
1.1664744734588730068
1.1663016650166526667
1.1661560992793971181
1.1660259209270642522
1.1658949515770467009
1.1657627889515171926
1.1656640417788923791
1.165637365132269565
1.165692296284794427
1.1657875616225756854
1.1658493250075303571
1.1658304162252830505
1.1657151017622737754
1.1655182201810376785
1.1652756606998138089
1.1650207843953983566
1.1647856700181784539
1.1645961914292188855
1.164484449614306083
1.1644742312319342759
1.164540425211659791
1.1646255956072919524
1.1646450514510291452
1.1645476759025019664
1.164387869310923751
1.1642938724343672163
1.1643330234068578477
1.16442608357647992
1.1644124401322817342
1.1642537527132603703
1.1640965760282355745
1.1641520336064052898
1.1644786933100510495
1.1649176564077448059
1.1652261633068909941
1.1652608665428560997
1.1650631468307031113
1.164771499064097604
1.164499620563261395
1.1643072180668807558
1.1641858686553565594
1.1640792941235322822
1.1639490968793990699
1.1638036197622878554
1.1636917386514262773
1.1636417808339729607
1.163614906954731687
1.1635437515510573814
1.1633945133577692221
1.1632230922730308897
1.1631177252749680395
1.163138376909538918
1.1632738632825587732
1.1634559865063993644
1.1636238003317831424
1.163728793345119028
1.1637818799721348917
1.1638437966897547948
1.1639565091776618022
1.1640872224653895373
1.1641295792774633
1.1639782786682697502
1.1636140297557713286
1.1631544242933153921
1.1627587425601439985
1.162552307893590875
1.1625443080467083856
1.1626709211942343192
1.1628471389800292268
1.1629904445172249972
1.1630381233888711368
1.1629488576381050713
1.1627229427404888185
1.1624155074138726729
1.1621220914758991771
1.1619385250085825234
1.1619134590021309439
1.1620464004680706172
1.162294458610521275
1.1625796839761881607
1.1628073785591497291
1.1629053702307923235
1.1628428618336812406
1.1626483307812169876
1.162395966480458398
1.1621682469630396639
1.1620115592960402751
1.1619262801059710988
1.1618739788508858357
1.1618243908839140932
1.1617581468489484031
1.1616962045067662501
1.1616821628553846146
1.1617640804045643588
1.1619296160392320605
1.1621440149441661926
1.1623346111851540208
1.1624436971310507793
1.1624492945181252868
1.1623801352701332856
1.1623055059716969062
1.162279857715634801
1.1623131030111244488
1.1623640820272287399
1.1623640915007140695
1.162272521254293256
1.1621032743299744006
1.1619023865193247591
1.1617141853828274467
1.1615568575617840619
1.1614217797219110739
1.1585977844730015462
1.1586244051463734372
1.1585636349295924674
1.1584307776679581004
1.1582555936785992046
1.1580670924604765659
1.1578789014804924395
1.1576915233771307712
1.1575011090695435101
1.1573133098993537704
1.1571502232900605645
1.1570479476054729151
1.1570320880652393836
1.1571021766986884227
1.1572253513893977495
1.1573433349036852391
1.1574088199650984787
1.1573987547306008317
1.1573238742475084884
1.1572164553505737139
1.1571129537669504472
1.1570398447329635072
1.1570039861186887098
1.1570020757546874979
1.1570240639074975686
1.1570601220131990772
1.1571003799322387984
1.1571338752124542548
1.157150456676843131
1.1571405729734787204
1.1571016138012271135
1.1570412316618048365
1.1569755044965437385
1.1569222075789469262
1.1568976896107086016
1.1569117286006778134
1.1569694718198457739
1.1570595591428194382
1.1571577727369277699
1.1572248741031110342
1.157215812193265414
1.1571032915238186334
1.1568919256873340107
1.1566239431359472967
1.1563690457591762062
1.156192838792198252
1.1561327642562406748
1.1561836374040117548
1.1563031494650213293
1.1564366288986709375
1.1565383412519132378
1.156588998220945852
1.1565927452734179326
1.1565696591553911166
1.1565423227221900415
1.1565263373013929815
1.1565294916261219527
1.1565556222667023878
1.1566070468947280414
1.1566864003881454082
1.1567911314516035048
1.1569096186507641377
1.1570207931642766397
1.1570964503724114891
1.1571093588916621098
1.1570497731022812982
1.1569369558436062295
1.1568075116681573178
1.1567035375631125049
1.1566512480814292729
1.1566540630837631731
1.1566944346337733052
1.1567489036177489581
1.1567998271729669213
1.1568426758668928223
1.1568844365674615382
1.1569305837595198483
1.1569783124802826002
1.1570080143575769416
1.1569934853513799133
1.1569180072258229419
1.1567827003698609722
1.1566188988831909157
1.1564712236247609578
1.1563845764087186119
1.1563876219930200318
1.1564816183497805824
1.1566396530121856312
1.156816396650040657
1.1569604052572803887
1.1570265357523945582
1.1569897150331376334
1.1568501797847750012
1.1566339907895777372
1.1563813636205766411
1.1561345415161352612
1.1559251263034899804
1.1557681659759591053
1.1556592784583341604
1.1555807139772178438
1.1555138169225271927
1.1554447200722952616
1.155370500871663042
1.15529689066134722
1.1552334506532540015
1.1551893995287807471
1.1551670212108657854
1.1551631447321077939
1.1551711503286103966
1.1551798530125159115
1.1551800186127343384
1.1551628414581600612
1.1551236877403840975
1.1550611802965011776
1.1549771592424658007
1.154877419807034622
1.1547685151756905686
1.1546602653558926121
1.1545643564863370401
1.15449319414278051
1.1544547980676969079
1.1544552686892362026
1.1544903443691807432
1.1545459639621620251
1.1546005056557127055
1.1546306595623558877
1.1546191941217283095
1.1545592100359145515
1.1544576044044638774
1.1543308837116357246
1.1541971775601176375
1.1540686902182069051
1.1539503567370712478
1.1538380160662340401
1.1537284789223172243
1.1536230496016457447
1.1535348853681139936
1.1534828805434809151
1.1534881770043043936
1.1535646596884623349
1.1537116197133769901
1.1539125776166307968
1.1541359732457139309
1.1543442064002540359
1.1545036801304924268
1.1545944701087020867
1.1546131324452870714
1.1545729106153508337
1.154497392684831647
1.1544130808270731681
1.1543443708358158695
1.1543068621980043797
1.1543037402506421962
1.1543280632432055821
1.1543664309463146367
1.1544019241472729398
1.1544174539821441261
1.1543997365835756419
1.154341384676586646
1.1542420893154747841
1.1541057515484427487
1.1539419635883725324
1.1537663916994125302
1.1535981430160349159
1.1534587992512801424
1.1533666341833666014
1.1533339610763364558
1.15336681598776436
1.1534590412711951402
1.1535918589325029338
1.1537385296092133036
1.1538744933957296723
1.1539796917585154468
1.1540453886749946211
1.1540712518589031355
1.1540645373175355548
1.1540333813738004043
1.1539824071491997515
1.1539133538708030713
1.1538282143324825046
1.1537288571519099811
1.1536230332074721705
1.153519897228440616
1.1534286614564270845
1.1533566066962257501
1.1533041140352462417
1.1532620918411060629
1.1532161068146793426
1.1531534969043193417
1.1530674930322639682
1.1529623604476926246
1.1528563473016015806
1.152777085622870068
1.1527562818309893267
1.1528178409050888753
1.1529735464644697007
1.1532136776445358617
1.1535077545619236705
1.1538127730843994456
1.1540816699307749893
1.1542705865193370052
1.1543530745134067406
1.1543199973966593586
1.1541824841892636133
1.1539668976896051422
1.1537076286020409022
1.1534379436673718455
1.1531872912939808984
1.1529770543906903146
1.1528194511501004271
1.1527205648632006252
1.1526809661822838837
1.1526967111916281983
1.15276177250670675
1.1528673862765874691
1.1530014929488474618
1.1531524421913836864
1.1533084639223756263
1.1534585383660274083
1.1535934683701223324
1.1537074163920280068
1.1537966804213479755
1.1538624279432698749
1.1539063525606294558
1.1539313650123828037
1.1539412954072369999
1.1539356778710561091
1.1539143856921054709
1.1538782288150086774
1.1538242361891981602
1.153755008166466034
1.1536723580797170197
1.1535817159465133752
1.1534907480946967606
1.153408235790944758
1.1533442807902216654
1.1533070905164002351
1.1533023659129972849
1.1533309567154084174
1.153389483723037845
1.153467846723256196
1.1535550179492652934
1.1536366937351778539
1.1536976812274517545
1.1537249496167159002
1.1537085488862999227
1.1536425188715178081
1.1535262019941370237
1.1533631549565639407
1.1531611387887039655
1.1529312328934333554
1.1526856192192123096
1.1524363203219971652
1.1521941403663464865
1.1519685569176565387
1.1517670688775405452
1.1640516192829029052
1.1627797026822346282
1.1638350050217500797
1.1640040155147926004
1.1627578091733934418
1.1627365301246139762
1.1637441169819036091
1.1635595116797468052
1.1633702579998563831