/*--------------------------------*- C++ -*----------------------------------*\
  =========                 |
  \\      /  F ield         | OpenFOAM: The Open Source CFD Toolbox
   \\    /   O peration     | Website:  https://openfoam.org
    \\  /    A nd           | Version:  12
     \\/     M anipulation  |
\*---------------------------------------------------------------------------*/
FoamFile
{
    format      ascii;
    class       volScalarField;
    location    "0.013";
    object      rho_0;
}
// * * * * * * * * * * * * * * * * * * * * * * * * * * * * * * * * * * * * * //

dimensions      [1 -3 0 0 0 0 0];

internalField   nonuniform List<scalar> 
75962
(
1.1626065108981482599
1.1615123563723921407
1.1625632936024099529
1.1625356380843991921
1.1636092676790699141
1.1643730033646317867
1.1641890508688459427
1.1640307704216752427
1.1638128308678283851
1.1635648024570390824
1.1628972345444694714
1.1622086229638182164
1.1627414873242343241
1.1643063560268755996
1.1650932622368199709
1.1645906026298991076
1.1639843281160737742
1.1639245834554305947
1.1641528785380579336
1.1644401928207612773
1.1647357090609340435
1.1647119339403324556
1.164228909717386129
1.1637851140998591859
1.1637490143072584114
1.1636405415312027767
1.1631858938555839078
1.1628333067626117625
1.162776167541606176
1.1628760776701732027
1.1632229692836277835
1.163895839896910811
1.1644625758349780309
1.1645377575747271059
1.1642889139348528982
1.1640932025824157758
1.1639855525838478378
1.1638909696307466746
1.163874479505200954
1.1640390171709458222
1.1643639793028737195
1.1647909881307902946
1.1652545601473736081
1.1656204746423539653
1.1657366149344325912
1.165515708959394825
1.1650078464337816353
1.1645117664972068905
1.1644020575395352957
1.164791025217918552
1.1653779083530082517
1.1657744230246467332
1.1658650019832896838
1.1657878695653125511
1.1656894498367991186
1.1656923984154061724
1.1657989392129204376
1.1658253682310779631
1.1656136350653916178
1.1652335280752346147
1.1649570521506327214
1.1649974069971060775
1.1653155761018805237
1.1656576476277680232
1.1657792161583784285
1.1656957957821056926
1.1656482465430035855
1.1658338291789973606
1.1661801423675750566
1.1664561603266909717
1.1665250319165367809
1.1664800917760096421
1.1665233286377578725
1.166721701412875456
1.1669262290390194359
1.16688045525867512
1.1665400182650138561
1.1660749200009801196
1.1657320334976715159
1.165570531681008104
1.1655529856450905779
1.1656177999502455034
1.165691055079939753
1.1656827262054343386
1.1655510789010663508
1.1653763055560071304
1.1653120110531585141
1.1654082050994405417
1.1655368788804219005
1.1655352198075570325
1.1653977273643791879
1.1652272753150691997
1.1650661533463793074
1.1648479984773978391
1.1645295377092443889
1.1641958141518364833
1.1639803629829164056
1.1639438371546062534
1.1640512144693526686
1.1641943970327488511
1.1642899075230732642
1.1643181714186832121
1.1643319510117553506
1.1643938434203915389
1.1644875667499752225
1.1645074806669704071
1.1643739541103363955
1.1641406654858650338
1.1639696993528019231
1.1639815157596151707
1.1641726342872107391
1.1644001370408976204
1.1645533028861374536
1.1646310675547189017
1.1646854741930308119
1.1647446145598674416
1.1647793497702820797
1.1647242949349432273
1.1645404291728107538
1.1642487952258477879
1.163918902390944643
1.1636388371414521092
1.1634681030206062147
1.1634052688919218621
1.1633860960588471301
1.163330724986504805
1.1632252446251762912
1.1631216814433555928
1.163106104945125896
1.1632187538293807805
1.1634376363068705817
1.1636622272669134848
1.163778422706080784
1.163752968303583657
1.1636454512378229253
1.1635733478955336828
1.1636190685857781268
1.1637582054225286132
1.1638570731964050786
1.1637711278303706219
1.1634474746785803401
1.1629705649568990999
1.1624988022808790955
1.1621654798683953569
1.1620142891667630813
1.1620209686147480177
1.1621289829092751322
1.1622871910871670487
1.1624392510921179866
1.1625141060014301253
1.1624760965582103811
1.1623476439527864468
1.1622078506630966199
1.1621412394879973018
1.1622045536272056498
1.1623827797631116621
1.1626113235899715459
1.1628167595087608444
1.1629541032151691216
1.163011438231368988
1.1630027037064780693
1.1629407306970116487
1.1628360457250828119
1.1626964122664762424
1.1625419978497386619
1.1623938490035965465
1.1622724563593360703
1.1621709887582001297
1.1620784182658627781
1.1619800494058030171
1.1618768957182263879
1.1617697542339999739
1.1616859645353601049
1.161638431558284168
1.1616440916795065519
1.1617098151270728312
1.1618371130742608521
1.1620105850827426863
1.1621979780053308673
1.1623598319145655999
1.1624536185348492978
1.1624446766294558309
1.162323127469642392
1.1621044847977746173
1.1618318655001746986
1.1615665554894731848
1.1613671345745668617
1.1612683831818011448
1.1584553996506843365
1.1585010860299147506
1.1585353550569879033
1.1585497459274178844
1.1585269912718718643
1.1584461641762284767
1.1582955191040362752
1.1580890701344463967
1.157868795918766569
1.1576911696329528212
1.1575979892072472133
1.1575994209013269476
1.1576650447673402233
1.1577440473079361194
1.157791316456548758
1.1577831520007306754
1.1577204211193028449
1.1576216788277953196
1.1575115912244664518
1.157409510443417
1.1573261238088827785
1.1572632914821650019
1.1572196288217844184
1.1571940545212275886
1.1571890967996538713
1.1572068449605863449
1.1572483220983154073
1.1573048768431553057
1.1573627347265322829
1.1574023724519515444
1.1574039165282115071
1.1573599669196636963
1.1572778012237148193
1.1571776490023590878
1.1570917465830659054
1.1570506210299640326
1.1570720620102759035
1.1571479669824904501
1.1572438377998741643
1.1573088414736361074
1.1572970672398610326
1.1571891960839584268
1.1570065810715028931
1.156799394303451356
1.1566264592642496734
1.1565301104858123349
1.1565151282969112767
1.1565622224802245555
1.1566333286540997349
1.1566965855449784506
1.1567338572231582461
1.1567466945734303785
1.1567445683041241988
1.1567374408575648026
1.1567358451550515674
1.1567501528468018268
1.1567886986883781919
1.1568625793195359552
1.156979635779697535
1.1571355422132667545
1.1573101392302254098
1.157470950322788017
1.1575783354434447947
1.1576000952156986212
1.1575261794693854078
1.1573739900639026246
1.1571825932448429608
1.1569975914705545872
1.1568543994761841809
1.1567666449986939714
1.1567287482031585188
1.1567237748351621995
1.1567400104778122749
1.156778101589289065
1.1568453337423287852
1.1569471266436865964
1.1570730407291172082
1.1571959867038239533
1.1572784118513075313
1.1572861682519484106
1.1572069157212672152
1.1570579996552654567
1.1568840019851627243
1.1567378877624163724
1.1566669593378628988
1.1566972217110200738
1.1568245204315339425
1.1570148444503580709
1.1572142726575684879
1.1573687644654924167
1.157435557064023568
1.1573953327960206927
1.1572526788297012867
1.1570362483493099592
1.1567825207849864455
1.1565271081723065283
1.1562944500605076836
1.1560954625662391848
1.1559284645685394821
1.1557842271679312773
1.1556535970751331543
1.1555316533887909358
1.1554189274851656144
1.1553218754223673059
1.1552489782326444967
1.1552081538818357309
1.1552013896812656224
1.155224341160912882
1.1552660547069242281
1.1553118310367744836
1.1553455609975418206
1.1553531379053691985
1.1553244516318297297
1.155256987962089088
1.1551552035299437193
1.1550277695780084564
1.1548886589547251447
1.154753072824503235
1.1546397250586586392
1.1545659698051797815
1.1545402897985403978
1.1545632795938578496
1.1546214574446977963
1.1546919495950775936
1.154744536121097731
1.1547522481592635835
1.1547001339031057743
1.154588384470176976
1.1544312578294806393
1.1542500815398206715
1.1540653102718521072
1.1538919914773315689
1.1537376219575969927
1.1536051928235850905
1.1534979365421709208
1.1534223196135995337
1.1533873420797637888
1.1534037892341719722
1.1534778539801864294
1.1536068297642223524
1.153779004198922209
1.1539730110833610333
1.1541665116453598827
1.1543405319667732201
1.1544814372350327147
1.1545840854643591999
1.1546486266534092824
1.1546802782129317322
1.1546837246821766154
1.1546643973737227284
1.1546265876183370302
1.1545749952721040543
1.154516639329654204
1.1544575571430129024
1.1544052708640746285
1.1543639017668774205
1.1543322196153908976
1.154304201395911722
1.1542700683538476003
1.1542184695207424738
1.1541407117147610695
1.1540340986857302585
1.1539052937698355272
1.1537692714884471012
1.1536484197157195197
1.1535652891807912646
1.1535359121506800761
1.1535657113532535867
1.1536504392605495539
1.153776176117993213
1.1539219045600752622
1.1540672337614983345
1.1541954546288968331
1.1542944353426138893
1.1543540312048754526
1.1543679769507551036
1.1543295442233154624
1.1542361656943977977
1.1540893359499113657
1.15389817745015133
1.1536760231711291613
1.1534414047841468065
1.1532147435701707305
1.1530088090102996734
1.1528283784511579313
1.1526692248934640173
1.1525212138312375121
1.1523755468646028621
1.15223035663060136
1.152096685720675362
1.1519972718458086902
1.1519617848125263126
1.1520167776324903297
1.1521815256806080541
1.1524564537780692675
1.1528232296132436829
1.1532463626742337492
1.1536758771829989101
1.1540570293376863908
1.154342320171578562
1.1544977439229893168
1.154510425723014766
1.154389618700061737
1.1541614258773056356
1.1538658967341368644
1.1535460623661626389
1.1532412572863868228
1.1529801918086697299
1.1527790558602917237
1.1526428209735972708
1.1525684782536831374
1.1525509928634325441
1.1525850637264911658
1.152666008503412387
1.1527896192972302281
1.1529498898712982058
1.1531362628165746642
1.153334009177298114
1.1535261202119670987
1.1536954337591942554
1.1538279619853357705
1.1539149589756201308
1.1539551403690380127
1.1539538488619280887
1.1539196030608140919
1.1538632672419315561
1.1537955594738589227
1.1537226194812133517
1.153648128892688085
1.1535727720505701832
1.1534965494735027747
1.1534205999978701662
1.1533486664685836942
1.1532869245527446189
1.1532416921092678574
1.1532191608820834272
1.1532248409965870639
1.1532583258724395936
1.1533165296868033156
1.1533918422816442639
1.1534749223419242803
1.153553738092692571
1.1536166862337853267
1.1536518892943072867
1.1536492459895180129
1.1536011652105735426
1.1535022115217739014
1.1533520781709134528
1.1531545074146301033
1.1529177105312091722
1.1526535496873560049
1.1523771417578523302
1.1521053669986704993
1.1518540475708705095
1.1653309526699811016
1.1651251155985840047
1.1644757304314321544
1.1637230659771928831
1.1637221708371532358
1.1630069317863560574
1.1627312306632064942
1.1630792297178971229
1.1631842649303643089
1.1634221970097404775
1.163589498667977562
1.1633745545532310217
1.1637243996255097755
1.1647558629300795996
1.1651466720060195126
1.164612778055745812
1.1642689680028255328
1.1644666038422328835
1.1645766932830114992
1.1646267028464705184
1.1648822696796832243
1.1648881481984536546
1.1642689545750040114
1.1636524947147712794
1.1636398848056648259
1.163699839414435111
1.1632922809651722318
1.1627513990988240788
1.1624572107051467373
1.1624686934501471391
1.1629614599907405204
1.1638870121198783281
1.1646918669646622035
1.1649481245295496556
1.1648233743334792667
1.1645864049397784967
1.1642744710803631936
1.1639195747471211551
1.1637195959657544719
1.1637306535930695972
1.1638926221941867656
1.1642089735424878683
1.1647141664902769254
1.1652988988139507676
1.1656620121741889662
1.1655698000942109616
1.1650976826858270297
1.1646298574819917704
1.1645047934184544758
1.1647425809850815437
1.1651022550015728285
1.1653220681814797643
1.1653595682794748445
1.1652796209057754151
1.1652153845208523819
1.1652948279317687508
1.1655135044487883178
1.1656765143432794574
1.1655954251164715174
1.1653319104711792331
1.165124813600539877
1.1651625662992466381
1.1654534305727737298
1.1658129973647883837
1.1659954782964001563
1.1659513802647125669
1.1658934814391688217
1.1660624335284646147
1.1664181118006191618
1.1667191462073840391
1.1667771710120258266
1.1666654665708846572
1.1666039524044553577
1.1667178580917918485
1.1668810207344539887
1.1668745672150955262
1.1666276967060038583
1.1662914248340980894
1.1660349284287676586
1.1659035426992996332
1.1658676934473268805
1.1658509968190100548
1.1657978478970774106
1.1656864878732453583
1.1655431187204750021
1.1654446575251309337
1.1654784897279619749
1.1656320613191555324
1.1657684758454882612
1.1657673935229999618
1.1656198229531977706
1.1654099509871200802
1.16518394151994098
1.1649224960463362422
1.1646211942581161658
1.1643431050783568104
1.1641743532898385372
1.1641578492866311301
1.1642649238229567654
1.1644017105662651801
1.1644646798543263344
1.1644175318828497989
1.164327090722207636
1.1643041349813663121
1.1643794422727218318
1.1644521765188020623
1.1643960242800648341
1.1642010904496948864
1.1640296972226495953
1.1640605976772409047
1.1643177322817119812
1.1646612575045853788
1.1649160033841188255
1.1649976832716701924
1.1649268805535990534
1.1647879883134115708
1.1646370754287886928
1.164479317489234278
1.1643048142870500161
1.1641076484539849556
1.1638960105321900507
1.1637077032828122558
1.1635880553702819817
1.1635377349678814873
1.1635052969340970996
1.1634169641339395795
1.1632637764584417006
1.1631190583128376836
1.1630758698184691102
1.1631800846191115983
1.1634020587990057116
1.1636315229928151371
1.1637666603945435728
1.1637702274397243585
1.1636940100270225518
1.163655595652397956
1.1637353548608744269
1.1639028672974571776
1.1640139661163082518
1.1639191435672966435
1.1635792545813090637
1.1630910595400991703
1.1626325994137809428
1.1623403974321189214
1.1622494473784172886
1.1623238946595133569
1.1624941740934944256
1.1626819745927634564
1.162816150229868839
1.1628244204803979134
1.1626784896535882208
1.1624346983315625437
1.1621841013925933161
1.1620328975995930509
1.162040038414354548
1.1621911440548453598
1.1624221913713395082
1.1626564083185895182
1.1628300618910640818
1.1629037220866473845
1.1628657074154842288
1.1627393662917981931
1.1625643117112487435
1.162387586796872041
1.1622370313656336105
1.1621232309399556204
1.1620363449092139252
1.1619590119022562558
1.1618772989190888634
1.1617928733893276849
1.1617323492457003464
1.1617224901345970522
1.1617747999114858004
1.1618785109475382455
1.1620050640738566194
1.1621237703031837007
1.1622152469689153165
1.1622796091706864008
1.1623350060329069589
1.1623921140505528715
1.1624408431942419018
1.1624449259401721246
1.1623621339806204933
1.1621770590853015559
1.1619204798179758598
1.1616532623881563602
1.1614355877183057952
1.1613005193853298547
1.1612420197949071543
1.1583815266623891382
1.1584248834377119941
1.1584434472381910375
1.1584373669157654874
1.1584053342235278716
1.1583407073329958781
1.158230131035868915
1.1580624524254250485
1.157843108600988824
1.1576039904796804336
1.1573966029203266448
1.1572715375822921757
1.157253240655806481
1.1573254570383493256
1.157441864330006398
1.1575439432675800333
1.1575888211017457685
1.1575646326880231207
1.1574826312378057036
1.1573753616844315584
1.1572706526907379221
1.1571880820595730199
1.1571354838800902431
1.1571119131482652254
1.1571141269298741427
1.1571393990868057422
1.1571814181043773573
1.1572324856939946169
1.1572789413363238076
1.1573055391716768892
1.1572990446522730679
1.157252915508134139
1.157174040301290896
1.1570777587699774269
1.1569876361891022754
1.1569316278887180616
1.1569319310897334674
1.1569949416727443037
1.1571051755839820707
1.1572220815797131799
1.1572884461942225531
1.1572597131604458465
1.1571207765073068252
1.1568974316907580935
1.1566524809572069632
1.1564532044636584018
1.1563489066600882715
1.1563446268934427508
1.1564139169342773084
1.1565114388002191159
1.1565968813644031954
1.1566483865794101593
1.1566653293332072039
1.1566613296644421283
1.1566502416212827153
1.1566430363635575862
1.1566472691890998803
1.1566691016147077065
1.1567168119973747498
1.1567993614567875227
1.1569182411580538616
1.1570606226516575443
1.1572030931309020829
1.1573102955286902471
1.1573508413743787138
1.1573116486867121022
1.1572058087076926292
1.1570654033111205106
1.1569293451116866578
1.1568272879324770219
1.1567708354295045403
1.156750766248850093
1.1567529091670587515
1.1567709527628904365
1.1568074015249338871
1.1568714063125291602
1.1569642991996575976
1.1570733057302269309
1.1571666898675296853
1.1572070505531384388
1.1571643156785276219
1.1570380251929679449
1.1568535334841836271
1.1566619221281366769
1.15651868116677492
1.1564650374075500228
1.1565167757501944035
1.1566600244292830624
1.1568549568476751421
1.157045583449092474
1.1571761781610139241
1.1572096617614127112
1.1571332816096131513
1.156961092437564842
1.1567264304106978923
1.1564706685900871808
1.1562291687534957951
1.1560246282230131065
1.1558642231086495578
1.1557399215680650428
1.1556387408529880112
1.1555480840858383118
1.1554614142056849335
1.1553786328842985398
1.1553046904754085134
1.1552478207529022214
1.1552129009022766848
1.1552008050865296696
1.1552073143254149024
1.1552251671141022804
1.1552422767062104914
1.1552482849116110231
1.1552333829075556171
1.1551914000172096575
1.155121933046292293
1.1550278060118694956
1.154915267034965165
1.1547957762635099321
1.1546830968674319795
1.1545908704121694566
1.1545334403900757714
1.1545194448830649048
1.1545471069782153872
1.1546039573453583671
1.1546663224261370928
1.1547076739454953387
1.1547045104493689482
1.1546455670108721758
1.1545340605014022817
1.1543849164166315457
1.1542193395458915095
1.1540557881100694804
1.1539032332528593727
1.1537641829826399409
1.1536393985828501396
1.1535317888638763062
1.1534513596135336222
1.1534123358611010346
1.1534291667517189151
1.1535103120376546393
1.1536534080921874157
1.1538429458431893604
1.1540513507596255049
1.1542490690244080476
1.1544112643159858411
1.1545226731217383964
1.154580400669454221
1.1545921905435576615
1.1545708150552049798
1.1545341137594413716
1.1544945034881515245
1.1544617554624017064
1.1544391894084855554
1.154425739778562443
1.1544191405959030039
1.1544147572612430963
1.1544062908821528524
1.154386183443131042
1.1543465703797395339
1.1542813619756659982
1.1541864496982063848
1.154060587652243175
1.1539116280815739923
1.1537542791247075158
1.1536070638531905619
1.1534943552311902604
1.1534337450144362958
1.1534355040665169589
1.1534994118594972257
1.1536135417491077959
1.1537567392105660957
1.1539033794198945149
1.1540334420241717961
1.1541327158257845831
1.1541964208072761355
1.1542226551163543569
1.1542130189781576455
1.1541659639605130749
1.1540825476177547504
1.153966086648634537
1.1538209838690209885
1.1536593031093143047
1.153493938798981322
1.1533385216596181433
1.1532039593557321666
1.1530883093752020141
1.1529835746508922956
1.1528774654607936156
1.1527592012360907692
1.1526268088290854141
1.1524914126175016538
1.1523764624594325934
1.1523137618559287088
1.1523334951024197803
1.152456515800588388
1.152686799568328313
1.1530059623886315112
1.1533775393124450215
1.1537509105765371142
1.1540748192727303678
1.1543065561761836069
1.1544173009418536857
1.1543993389964597451
1.1542665832166401074
1.1540478762762047538
1.1537798831460501781
1.1534994081648890507
1.1532351690544144773
1.1530082559173560064
1.1528306893328150728
1.1527055346376395839
1.1526319740677020143
1.1526092724030068126
1.1526352787439730907
1.1527076212726035109
1.1528221417721906672
1.1529700723008584617
1.1531399353187514745
1.1533173349539527219
1.1534880388628243608
1.1536384127165604241
1.1537587248628409231
1.1538437297916819269
1.1538941939513831514
1.1539130225481841752
1.1539045211102942901
1.1538744757875118996
1.1538275086111369205
1.1537659197174980896
1.1536940126936308104
1.1536113054490344521
1.1535219786976129708
1.153431338222091096
1.1533468457865456713
1.1532774219001016291
1.1532318619547359262
1.1532164175452270793
1.1532342887099835682
1.1532843300101114359
1.1533596760021180838
1.1534501010318218839
1.1535424733944645848
1.153623372908329614
1.1536794764083346809
1.1536995370130871397
1.1536749201800839959
1.1536006539655230263
1.1534758286284287898
1.1533028028014962185
1.1530884838039501261
1.1528429327410338878
1.1525780818097031144
1.1523066086519526685
1.1520419020115848507
1.1517963280491201328
1.1658263175527368016
1.1663812113404208315
1.1647601575369888049
1.1635848460765414458
1.162693461634981329
1.1624255454504734963
1.1631949745573224586
1.1635590612149719902
1.1634706793113511747
1.1641513177691278358
1.1646993941942449524
1.1644974252396660397
1.1643271141579429884
1.1645400302447141971
1.1649395125016428487
1.1652066829917675506
1.1654664984311857712
1.1656132665072245214
1.1651955625643029002
1.1645928728794145979
1.1646466644146074021
1.1649659090434816289
1.1646492326963320263
1.164065567332777551
1.1639813269139773766
1.1640571134196036063
1.1636092598076983595
1.1628535937100608066
1.1623883110860318002
1.1624787474611906202
1.1630619013985583621
1.1639593279471136533
1.1647879626278923038
1.165209309276380667
1.1651743046531901626
1.1647719226712605067
1.1642240326531312355
1.1637785714759238953
1.163587316093305013
1.1635765041754826399
1.1636783731829136723
1.1639191142936458068
1.1643710614559967809
1.1649664064345057746
1.1653992014137111166
1.1654062410431782482
1.1650780516668002296
1.1647389430973800195
1.1645935789730863519
1.1646305105963332682
1.1647079897865812992
1.1647527620071158605
1.1647647891490995331
1.1647465942249188853
1.164766821057260815
1.1649254895926330899
1.1652495583877924279
1.1655424130055622722
1.1656046288687600399
1.1654300117136247028
1.1652086886464829707
1.1651670511776630601
1.1654147973267707794
1.1658456963884278323
1.1661889344130123014
1.1662743976965812553
1.1662231363862092248
1.1662853856012214138
1.1665598658281854938
1.1668614786067337263
1.166959925254451802
1.166837204900282865
1.166687050138235815
1.1666701473208018758
1.1667636863717283369
1.1668359918080801751
1.1667931397257438331
1.1666562086259746334
1.1664710536344313763
1.1663008874933475933
1.1661570894113488794
1.1660273996359342696
1.165895940535486508
1.1657632298928364278
1.1656651500605970107
1.1656405909655271902
1.1656972655544302064
1.1657924271569926056
1.1658524947438735353
1.1658303185019016635
1.1657113708491551041
1.1655114299405007205
1.1652670702362331046
1.1650117203639052121
1.1647775645135478584
1.1645907769553329736
1.1644826674014150392
1.1644763653059480024
1.1645447883026982527
1.1646294223924462674
1.1646455797576893421
1.1645450307617835062
1.1643856139528081517
1.1642957556456623447
1.1643386190772164746
1.1644306093619714026
1.1644112931135242039
1.1642484732612561338
1.1640938083201657349
1.164157226229024511
1.1644903521333531682
1.164928526023375932
1.1652291063294972773
1.1652538016367717244
1.1650492322524481636
1.1647556612593801262
1.1644854100469932412
1.1642962391305515801
1.1641775946944461495
1.1640724032436875479
1.163942878957102911
1.1637984528311471344
1.1636882554805170198
1.1636390267045935154
1.1636101862804211216
1.1635354978879024479
1.1633840135578765729
1.1632141016476633677
1.1631137272169660424
1.1631401110665284815
1.163279280680284522
1.1634617700222888992
1.1636267103990105554
1.163727756563273763
1.1637787835167734407
1.1638416246974103707
1.1639568547958329958
1.164088312375166856
1.1641273902812809826
1.1639698710520034464
1.1636000886719899405
1.1631386275987576351
1.1627456750503151195
1.1625444783580527464
1.1625413366484487199
1.1626714655410674837
1.1628497829143702447
1.1629931676065992097
1.1630387940868083252
1.1629457166721515193
1.1627153461822490321
1.1624045019645932175
1.1621103969174015891
1.1619287130645767903
1.161907391680376378
1.1620448945733266033
1.1622968390081822587
1.1625840514682184157
1.1628112887187616042
1.1629066185147989287
1.162840592986883026
1.1626434199211996834
1.1623905409822208323
1.1621641394426909244
1.1620095135731731695
1.1619257077896523178
1.1618739751887174894
1.1618244503790646771
1.1617587932845223619
1.161699267389463941
1.1616893312001079774
1.1617756957760219105
1.1619446541137201656
1.1621596135067187028
1.1623473003337791987
1.162451277715275344
1.162451327704198345
1.1623786784342722278
1.1623037067399157873
1.1622800504691714885
1.162315844368912332
1.1623680732011485439
1.1623675475809625013
1.1622745693103322395
1.1621043534173722822
1.161903081668281823
1.1617146954900496869
1.1615566251213860216
1.1614203399623870272
1.1586010612545711851
1.1586249650359163876
1.1585622937983179881
1.1584287986394015135
1.1582540915964223416
1.1580664224737045043
1.1578785345677604646
1.1576905665610801588
1.1574989471813876829
1.1573101956344689079
1.1571473033617407644
1.1570468083822513794
1.1570339319816362877
1.1571069270849796418
1.1572317612781506391
1.1573495776789184397
1.1574135985521747383
1.1574016466689618365
1.1573253788262169994
1.1572174533090668902
1.1571142596476793329
1.1570417711133211824
1.1570064965024571269
1.1570051808816232963
1.1570278172810035677
1.1570646090957670271
1.1571056240159964812
1.15713955751588915
1.1571558331310951573
1.1571447575424749221
1.1571038238223663175
1.1570410298449205211
1.1569730081428426516
1.1569179486599048268
1.1568926866820214983
1.156907260602382248
1.1569666741940205501
1.1570590320930100869
1.1571591866564681084
1.1572271041997144181
1.1572174542084945337
1.1571033451626109301
1.1568903934738563599
1.1566219705934310813
1.1563681912196384083
1.1561942810212133548
1.1561365585683753832
1.1561886729636952076
1.1563077917856692256
1.1564395478815938656
1.1565393111730091213
1.1565887440446376289
1.1565925076600784838
1.1565706445883172648
1.1565449866865973316
1.1565303337785577398
1.1565339863937813547
1.1565596653464020882
1.1566099700196583733
1.1566879375736454083
1.1567912977333028035
1.1569084980146193686
1.1570184074628124815
1.1570927889271922506
1.1571047548748167877
1.1570451044645209127
1.1569336838529882261
1.1568069130294187374
1.15670616012010119
1.156656500660513176
1.1566603432350568426
1.1566999126887937965
1.1567522857746295184
1.1568009845197329
1.1568424539280877106
1.1568842215219361513
1.1569313487763355219
1.1569801986309391495
1.1570100996755461331
1.1569944036980417401
1.1569165853058971383
1.1567787324242457814
1.1566130848314231105
1.1564649106236661869
1.1563792429149080121
1.1563842720641686057
1.1564805193138862904
1.1566403601266721513
1.1568179667794344923
1.1569617215913645669
1.1570266543910077139
1.1569881718695627093
1.1568471591531415132
1.1566301608183415794
1.1563776571623094469
1.1561316770261882425
1.1559235235028200162
1.1557678090063712162
1.155659891629632563
1.1555819569887937348
1.155515581544818815
1.1554471251460904924
1.1553738885004098957
1.155301485681211604
1.1552392372046169644
1.1551959559895350615
1.1551735698515195327
1.1551689264669360302
1.1551753133967546106
1.1551819324525975929
1.1551798619886184394
1.1551606568781240814
1.155119973749342499
1.1550565992500330115
1.154972453437864699
1.1548731736643231827
1.1547650989724767001
1.1546579881213474561
1.1545633827918586611
1.1544935970656839963
1.1544566424839310947
1.1544584276192069172
1.1544944272083921266
1.1545502886817682331
1.1546042687309887587
1.1546330877416941529
1.1546198278229067302
1.1545581321216571435
1.1544553003345834341
1.1543279812317153166
1.1541943658039255372
1.1540661915921055503
1.1539480710802358931
1.1538356667489506613
1.1537261198391497441
1.1536210670404458689
1.1535341309589131065
1.1534842389249964079
1.1534922817001656004
1.153571632531337432
1.1537207607479558202
1.153922649299568004
1.1541453917303525767
1.1543514720480381186
1.1545079334216443723
1.1545956674102051398
1.1546119565915544669
1.1545706206442329922
1.1544954253711161574
1.1544127258739917963
1.1543464242797047969
1.1543115806351320618
1.1543106922446491058
1.1543363145390843627
1.1543747679243649973
1.1544090306497185594
1.1544222511371176054
1.154401484863604832
1.1543397852971557516
1.1542373829976935173
1.1540986405844539942
1.153933353331003886
1.153757645772971463
1.1535906048681381364
1.1534537539726579247
1.1533649157742835722
1.1533360669732768411
1.1533725655582058867
1.153467499219405612
1.1536017364513733163
1.1537483141761013528
1.153882853267451436
1.1539858436619030435
1.1540490124400042404
1.1540727423864300949
1.1540644831651567515
1.1540325327334604033
1.1539812139526233192
1.1539122138300093035
1.1538274624501689836
1.1537286823728554186
1.1536237381873792884
1.1535216549697819843
1.1534315362734337551
1.1533604331387374842
1.1533082575209152587
1.1532657017115772735
1.153218276679814025
1.1531535498763840764
1.1530652764329012427
1.1529584101034504595
1.1528516631873906295
1.1527730814468077902
1.1527541359981530178
1.1528184886632555362
1.1529771783135840391
1.1532197031067463744
1.1535150820883086631
1.1538199295705604541
1.1540873313372463915
1.1542738649291022224
1.1543536089248846999
1.1543181295553723853
1.1541788874397733711
1.1539625326129490102
1.1537033863143670853
1.153434388826332091
1.1531846694804877007
1.152975298242137292
1.152818224192940999
1.1527194354653775843
1.1526795408541068433
1.1526947816705688243
1.1527591416464144647
1.1528640786209669589
1.1529975821766038635
1.1531480185023423868
1.1533037222393884846
1.153453767671418051
1.1535890549554022044
1.15370371010757089
1.1537940965711881436
1.1538612944330548515
1.153906929204534082
1.1539335484215331729
1.1539446761215559345
1.1539396108921065043
1.1539180359936693776
1.1538807402682085268
1.1538250616762439904
1.153753636026344509
1.1536687035906276755
1.1535759836483725493
1.1534833239504389546
1.1533997334310310823
1.1533354154568897787
1.1532985094787924218
1.1532946611124772485
1.1533245901474180606
1.1533846677214325549
1.1534646205040803846
1.1535532418554810263
1.1536359972322292045
1.1536976407977468373
1.1537251576744247394
1.1537086187779617141
1.1536422028819404151
1.1535253869593895537
1.1533618465203274717
1.1531594469640844558
1.1529293394713804322
1.1526837065027299989
1.1524345293113982258
1.1521925491326490132
1.1519671856775075547
1.1517658866855755573
1.1639978012092146997
1.1627686425060068665
1.1638674245987428169
1.1639727199675080627
1.1627175835694913975
1.16274902023571447
1.1637583426198432335
1.1635495331255687468