/*--------------------------------*- C++ -*----------------------------------*\
  =========                 |
  \\      /  F ield         | OpenFOAM: The Open Source CFD Toolbox
   \\    /   O peration     | Website:  https://openfoam.org
    \\  /    A nd           | Version:  12
     \\/     M anipulation  |
\*---------------------------------------------------------------------------*/
FoamFile
{
    format      ascii;
    class       volScalarField;
    location    "0.013";
    object      T;
}
// * * * * * * * * * * * * * * * * * * * * * * * * * * * * * * * * * * * * * //

dimensions      [0 0 0 1 0 0 0];

internalField   nonuniform List<scalar> 
75962
(
299.6792351812765105
299.62483555504439892
300.04697196059817088
300.1151278897125394
300.10364665255161754
300.09888633458541563
300.11569879320694554
300.17499304452951492
300.17716156434556751
300.14308998418340479
300.10614752751820333
300.12100611229834612
300.24610960710811014
300.37867497032277697
300.3098786985372044
300.0524276367867742
299.83791803967693568
299.80919137396659835
299.934383476684161
300.1178565502544302
300.2681605216376397
300.30074076288013885
300.20679702595867866
300.08760377803548636
300.03838214040007415
300.03573591827813516
300.03743830067622866
300.05854474504724294
300.08978911074251528
300.09467632125250702
300.07268813928806139
300.04151401367130347
299.98806607099737676
299.91601262360580904
299.87840285876330881
299.91935179001086453
300.00681152066999857
300.07358409466337434
300.07640655992020129
300.01292382920303226
299.90783196838964386
299.80576513174924003
299.75020536579609143
299.75675918391942787
299.80917038862145318
299.87106938735519179
299.90587456728724192
299.90590087135058184
299.89076317879124645
299.87881775144870744
299.86441739660307348
299.83601564186284349
299.7975722971971777
299.76047707358952721
299.72225386307553663
299.67745352830024785
299.62073120254081005
299.54325753157718282
299.44792470856828004
299.35980932703529334
299.31491885320144775
299.33005723561171862
299.38610046837914069
299.43950680197457359
299.45303896208503147
299.42552858640283375
299.38726200368813579
299.36719876026381826
299.3641180607802994
299.3554566861266153
299.32491896810927301
299.27915120889213085
299.237501962402348
299.20734190504811068
299.17547420391150581
299.11906193047110492
299.03931468317847475
298.96146926831147539
298.91882623370969441
298.92117241251935411
298.96082277377286118
299.02065587396481305
299.078700522427539
299.11292069342164268
299.11279207743456254
299.08882237827401696
299.06584294430587079
299.06005823182687209
299.06607239647502183
299.0683774147066174
299.06192691075125367
299.0501978570308097
299.03118596941015994
298.99510632278821731
298.9396677998645373
298.88053708528030938
298.84048412567932473
298.83313388282391543
298.85794192051537266
298.90228161427626219
298.95323697272277741
299.00392799429147317
299.05586406342990813
299.11287732492701252
299.17104724571737506
299.21644012503787735
299.23673973127409909
299.23361924237849507
299.22203427098310158
299.21574141182389894
299.21793858556219448
299.21810403750407659
299.20796256764805321
299.18906632670234558
299.16742968121627655
299.14691003354874965
299.12694488805118453
299.10541176998026458
299.0840418576338493
299.06981609787169418
299.07113566037708097
299.09352779636515152
299.13513135117187858
299.18589939695300473
299.23056997116617595
299.2567530529717601
299.26467769655027951
299.26603858223859334
299.2773539007268937
299.30762564806343562
299.35365433048110617
299.39862689400411
299.42179384366102113
299.41317203011351467
299.37908327959485177
299.3394247212294772
299.31544570491683999
299.3171160718074475
299.3374614288904354
299.35987603122663359
299.36940789060508905
299.36159993304568161
299.34156834140503634
299.31843747528540689
299.3004416831989829
299.29583404451068418
299.31244899438792118
299.35613211780179199
299.42490255791386744
299.50551423502878379
299.57981528688389972
299.63188721037363393
299.65474723196848572
299.65006411990083279
299.62777488096531897
299.59971731015974683
299.5770519062555195
299.56828031951647517
299.57786335522604304
299.60467363030471688
299.64257664777710488
299.68154113264262151
299.71209605218700744
299.72851558253728399
299.73178202359662237
299.72761536197566556
299.72456712867551687
299.72873388844811871
299.74434445136301974
299.77262215703086667
299.81319167346265431
299.86289895263684002
299.91938932402194951
299.97765584902015235
300.03307149540779619
300.08085477764666393
300.11759535407298927
300.14112778999833608
300.15117443739478631
300.15029198266768162
300.14309159435407537
300.13501906592097157
300.13139719282469287
300.13526940993870085
300.14705848039903913
300.16485665434362318
300.18533372423513583
300.20505444806792639
300.59342863791511036
300.55752030778916151
300.54000890731902018
300.54439885258557297
300.5677559229493454
300.60166983156369724
300.63520241171585212
300.6590069637477427
300.66812488361307487
300.66270572456551236
300.64611295669283209
300.6231144794214174
300.59784931002025132
300.57412465497861831
300.55595369735959821
300.54722307243059731
300.5507863248136573
300.56731403747471632
300.59478491839502112
300.62863148609477548
300.66321247220173518
300.69342091008206808
300.71645954948695589
300.73245657973888001
300.74448672854055076
300.75698684276920858
300.77419143072648922
300.79756965929857415
300.82504356910089882
300.85062127005983257
300.86570478733915479
300.86229602712069209
300.83558856448883034
300.78589448745236723
300.71977629039463409
300.64856453701531791
300.58577803687330743
300.54340218746938262
300.5290498453185819
300.54452153392168157
300.58626080791935919
300.64731100892231552
300.71969245953619065
300.79533105641678503
300.86670613590024459
300.92704021804064496
300.97015745898681871
300.99304495290920158
300.99609288277838459
300.98440039960712511
300.96632891679234945
300.95160580230407277
300.94779507770311966
300.95791135498421909
300.98008595559269907
301.00845869305072711
301.03504348570442062
301.05282063782146906
301.05747191103932892
301.04797411474982027
301.02652255903723244
300.99803662427399331
300.96892434172826825
300.9463778019571123
300.93762538816275764
300.94865534066320834
300.98257702972796324
301.038061378725331
301.10880250286101045
301.184504762433221
301.25381797434715736
301.30768965922686675
301.34278226723557736
301.36257662579635053
301.3756775757223636
301.39258255866536729
301.42138641719208181
301.46500624346629138
301.52010281324612606
301.57816791780112453
301.62871212289132927
301.66243595218600149
301.67410314840560659
301.66321099453955412
301.63413584828475678
301.59462351200556895
301.55361960843396218
301.51902193453548762
301.49625477671605722
301.48809693603521964
301.49442695373835477
301.51303300326850376
301.54015331198468175
301.57188984725974024
301.60441819044109479
301.63503396131568479
301.66246734144738184
301.68725168615878829
301.711507127750167
301.73838510740398533
301.77127353461571602
301.81265276786479035
301.8630562293583921
301.92069310492360046
301.98142548015317743
302.03957720383539254
302.08889213083523373
302.12395745431626892
302.14127525046359324
302.14001924924963305
302.12199839560946657
302.09113538187568793
302.05245598625316461
302.01128339001547829
301.97220680499964374
301.93834496818635671
301.91144729122521539
301.891857818574465
301.87943860724237766
301.87383928146806511
301.8744137549136326
301.88076675617162437
301.89214443837448698
301.90767170884072357
301.92602927749709352
301.94589924916323298
301.96638356719665808
301.98701810629552256
302.00762677542866186
302.02786791090267116
302.04684509250893143
302.06318754950507355
302.07521664113079396
302.08153692084550812
302.08153834725038678
302.07567950279184288
302.06519196312166287
302.05186363575472797
302.03722906541668181
302.02206541520723704
302.00635627308173525
301.98922617727282613
301.96991544147948616
301.94830998281275924
301.92518596034216216
301.90246068126322143
301.88272638270319703
301.86892465811274633
301.86336313853996671
301.86749587710721698
301.88145812613379348
301.90421292882615489
301.93393476403127806
301.9679520314406318
302.00345566428501343
302.03742151405486993
302.06683388562589698
302.08903406790835788
302.10206826800265389
302.10491269386074009
302.09776505332479246
302.08211988757494737
302.06073211664079281
302.03711477766859161
302.01507673826955624
301.99773406327949488
301.98664563775412262
301.98146480664343017
301.98025985260375137
301.97993167311909701
301.97702371632482254
301.96904299285603201
301.95511803125287997
301.9362136644954262
301.91465688634468734
301.89390056392181805
301.87735853755094695
301.86819512224695927
301.86867303661142614
301.88007565462396542
301.90224119977347073
301.93382787536108935
301.97247686007773382
302.01459393684871202
302.05608054699888498
302.09278057563170705
302.1209593543131291
302.13791811840519586
302.14212725940939208
302.13347426547068153
302.1129591700301944
302.08241687510826523
302.04387164728501602
301.99973285966621006
301.9521154404710046
301.90319477017794725
301.85551470789272344
301.81192649779700332
301.77591515811741374
301.75177415810566117
301.74384316556944441
301.75587354798483375
301.79002254153419926
301.84577369151207904
301.91978850776422405
302.00582630916778726
302.09571888300905584
302.18060381238962009
302.25245036128103493
302.30519444332554713
302.33529095107201101
302.34193712402270648
302.3265308545593939
302.29206497299111334
302.24262927093906228
302.18287948688526967
302.11756061235575999
302.05131958962402905
301.98855102176958098
301.93317177811388774
301.88850776570018297
301.85713329121085735
301.84085053488547601
301.8404363951291316
301.85530487070127492
301.88355262602112816
301.92199461127654558
301.96609325573899696
302.01067233364597087
302.05035776486937493
302.08034498462819784
302.09701691587520145
302.09839476424008353
302.08429891160938041
302.05612895285128161
302.01671886988810911
301.9700454685687987
301.92032560840004862
301.87195921381561448
301.82884673336189962
301.79428989604309663
301.77051810974074897
301.75882565612761255
301.75940247729835164
301.77158505900428054
301.79408427751502586
301.82512231124962909
301.86290400721446758
301.9056612763977796
301.95181641419537755
301.9999539077966233
302.04887407447472469
302.09747638020854765
302.14457201499186567
299.93114987623846446
300.06675153159176261
300.25580697708323896
300.26847033010147925
300.15863631754734797
299.96144959344502468
299.91769289937150234
300.01076371646888674
300.05987655294353544
300.09759871205625359
300.16210350789236827
300.23376035680365703
300.34530812124211252
300.42799222363680656
300.32312740921048544
300.06591499520510524
299.88230589807699289
299.88627846623927553
300.00502049086020406
300.16462603554816724
300.30517591054547211
300.32939892849418584
300.20588765774715512
300.05298449967489205
299.99485328604345113
300.00646266048687494
300.01942337655890469
300.03568443838855728
300.06121441499612956
300.07333854248469152
300.07357215683236973
300.06334539245108317
300.01836663968396124
299.94628901042636926
299.91019435532143689
299.94874004252585564
300.02913630718893501
300.08984295903076145
300.09388461593749753
300.02623275151466942
299.90271699924085169
299.77557819947895723
299.70531791186465398
299.71820689005045324
299.78766781521198936
299.86234443990088039
299.90573193996982582
299.91596094230027347
299.90590272401050242
299.88123731170310293
299.84143720561672808
299.78998475722920602
299.74315173162756309
299.70835595010294128
299.68186733497674368
299.65481202848570774
299.61485845281447382
299.54801426754659133
299.45523514016008448
299.36615277454501438
299.31935030097235995
299.33207654269614295
299.38947466505334205
299.45235780642764212
299.47999337401080311
299.46162236455256789
299.42323325591928551
299.398605722363925
299.39155152913951952
299.38095053975035853
299.3471943426838493
299.29601009326319172
299.24816953021309018
299.21555338077376973
299.18509692199626215
299.1356315534726491
299.06477127797961657
298.99609802218066079
298.95650914557364786
298.9562579914008893
298.99075361674539408
299.04238320421450226
299.09046392277417681
299.11832305854886727
299.12031823412081621
299.10486947649400236
299.08915972797979066
299.08315715295213977
299.08204827813352722
299.07708255399137443
299.06527842626627489
299.04977116808976234
299.02934645139634995
298.99826301255194494
298.9561422602280345
298.91344657376373561
298.88517983865409633
298.88145869021116141
298.90241893123010186
298.93841229703315321
298.97654947875429343
299.010228243870813
299.04408172477457128
299.08801509011374264
299.14337404128821163
299.19635272112594748
299.228499731856175
299.23305490438463039
299.2235259520323325
299.21880683319812988
299.22575756939369285
299.23592847660410143
299.23656551295914596
299.22193268840118208
299.19460796210927356
299.16250257491208231
299.13143981506578939
299.10440334165423337
299.08513367955970352
299.07826849283742376
299.08739305784428097
299.11429385724147778
299.15627075934145296
299.20311795156840162
299.23998388348672961
299.2543430068650423
299.2473828030479126
299.23491509015497058
299.23697730795078087
299.26534909269156515
299.31677123830013443
299.37208787534001431
299.40923892361684011
299.41490376105798532
299.3923087673590544
299.36053276255404398
299.34125426870031106
299.34548999246686662
299.36692432136970865
299.38936631770485519
299.3988720888393118
299.39088187578488487
299.37062518118221988
299.34621426608379124
299.32494640320652479
299.31545199628476439
299.32677616781103325
299.36458643425260107
299.42705983413202375
299.50102602456553313
299.56819324632203916
299.61449739271802173
299.63236102807735506
299.62460552107916101
299.6007921458148644
299.57280496461703478
299.55219611231729004
299.54773545042581873
299.56275685092504091
299.59399129089337066
299.63302118806745966
299.67063449072594494
299.69956643174504052
299.71726599173126715
299.72468153582155992
299.72603679408911148
299.7264609053167419
299.73087530728196271
299.74309895142130244
299.76602391721831964
299.80245024738513848
299.85293226252093746
299.91480323369233929
299.98179350160864942
300.04516390106186918
300.09610857257501948
300.12853985309686777
300.14130262297243235
300.13906696066788982
300.12974512624873569
300.12178134886164571
300.12102277139246098
300.12973483154138421
300.14756738851036744
300.17289678723858515
300.20247485728367565
300.23131955860128528
300.25370004348206976
300.26511798490827232
300.65147584885602328
300.60840674598642863
300.56904149753324873
300.542893119940004
300.53552388509359616
300.54702224476386618
300.5717652504915236
300.60042807741922388
300.62342221207131843
300.63436791887795607
300.63164827916830291
300.61787644141134024
300.59770641732404783
300.57575523306496734
300.55604801125434733
300.54168639277838793
300.53559058719298491
300.54022460501192882
300.55608928136661007
300.58182322122775076
300.61314909548366359
300.64447669020330522
300.67068656135086258
300.68890437475346289
300.6997693906886866
300.70726313347307723
300.71663399754834245
300.73249593460889173
300.75630423414389725
300.78548665239088677
300.81382954316256928
300.83318779842608137
300.83629544181911797
300.81856307769339764
300.77998931500479785
300.72576577959517863
300.66524502227110816
300.6098096488726128
300.57034580827223635
300.55430045788006055
300.56401174409472787
300.59758578358196246
300.64975830883201979
300.7135820522821632
300.78212997858605604
300.84810646882988294
300.90471743880391386
300.94533785625702649
300.96621482841516126
300.96755993093012194
300.95449648899341355
300.93592913954353207
300.92195615942478071
300.92066602518741547
300.93519945829336848
300.96326420310157346
300.9982581316542678
301.03151046680818581
301.05506785236963196
301.06379874414983533
301.05607204920983122
301.03368734220003944
301.00178791181014049
300.96727508672722706
300.93834874771715704
300.9235032593068695
300.93015007993665222
300.9622502274148701
301.01865545381826905
301.09235274024388218
301.17184341815209336
301.24390151987381614
301.29833233561470252
301.33150779420458321
301.34710057168439334
301.35473498844640972
301.36586928601468571
301.38981909970959805
301.43009175476072414
301.48375708104458681
301.5424888325962911
301.59629047426642501
301.63577371849112296
301.65532782134528134
301.65359432166877696
301.63322968380214206
301.60005070711997632
301.56162156835728183
301.52567188545862109
301.49853475443433126
301.48432487338209285
301.48490756734736351
301.49956149566173735
301.52554518713628795
301.55872859816787468
301.59451967897564373
301.62877198712214977
301.65896175515382538
301.68482262829297724
301.70808453285042106
301.73231183426298685
301.76163394939345608
301.79949267226203347
301.84728311493211095
301.90361727213564791
301.96448324693773202
302.02363974260487112
302.07418907924960649
302.11005633766296796
302.12755542752239535
302.12575384457664995
302.10691190845500387
302.07550903731402059
302.0372811668750046
301.9981036256921243
301.96268418201236727
301.93395068881170573
301.91323865046928177
301.90036841244210564
301.89420068869549141
301.89360737925989042
301.89760724174726647
301.90529148596777986
301.91589714661921562
301.92838937135331889
301.94177677931031667
301.95510747185835498
301.96795917819520128
301.98046705910604715
301.99311009043776721
302.00642630892394891
302.02039902909723423
302.03401161051851886
302.04576427782120618
302.05425795997899741
302.05863270750467109
302.0590592705696622
302.05642224721208322
302.05189685921055798
302.04633432936333293
302.03987846593093991
302.03176982973889153
302.02053935407360541
302.00507374977331665
301.98518972104011482
301.96197741012224469
301.9378847348078807
301.91623845772585355
301.9004376357994488
301.89370211948488532
301.89776902776026191
301.91301478819099202
301.93804152505981619
301.97001486926745883
302.00534053073425866
302.04000729472181774
302.07016189725555932
302.09257467484508197
302.1050380469554284
302.1066682528727938
302.09779114420013002
302.07980767600230365
302.05553038619308381
302.0285686081450649
302.00275863400025855
301.98206469245502603
301.96908604609257054
301.96487130607391691
301.9685984196621007
301.97755193985841515
301.98766253365516832
301.99448622062573122
301.99475237512729109
301.98686761296630721
301.97160190790435763
301.95136948035036539
301.92991134286313581
301.91095560209112136
301.89802698335472542
301.89370532201951391
301.89902733610347241
301.91415827896969404
301.9379533438781209
301.96852723487472758
302.00351930967360659
302.03949230880192545
302.07294315613029312
302.10040429155191077
302.11892962473768875
302.12655367231849368
302.12257404731434463
302.10747364549951044
302.08272107340150114
302.05021475442526935
302.01207146146811056
301.97052795751250187
301.92772744017935338
301.8861650715292626
301.84856809570140967
301.81830552974594184
301.79912591534730382
301.794461195309907
301.80709389713973678
301.83859913821868304
301.88852216470110079
301.95406901237811326
302.03031219300174826
302.11062756260469087
302.1880247884564028
302.25590681481548927
302.30858587695604456
302.34200685531533281
302.35414059130977193
302.34475458922878488
302.31546623708300103
302.2694586132700465
302.21096523712589033
302.14512785466422429
302.07732970438144093
302.01292024171948469
301.95662614440414018
301.91239069111503568
301.8830765980529236
301.87040791845799959
301.87453233500667693
301.89409410679922985
301.92643703181806814
301.9676334570117433
302.01276845394602333
302.05675302852671393
302.09412729622300731
302.12047801820926907
302.13253124217936829
302.12859760436856504
302.10872055372897194
302.07460362058549208
302.02925103015934383
301.97670491280211991
301.92153982564582293
301.86827475621720396
301.82114425213501363
301.78367277245592959
301.75851907065566593
301.74721246278318176
301.75020397960560103
301.7668954292268495
301.79588071958363571
301.83521826311732639
301.88262708190836747
301.93588062002385186
301.99290778277412528
302.05180638030793716
302.11082371266837754
302.16837807425997653
302.22290703606199713
300.06192616399283679
300.2282043429870555
300.30111680919509354
300.24955891224254856
300.04410186096868074
299.90177028175486384
299.97229229873647682
300.05874577922668323
300.07543910488561778
300.15801319302897809
300.2697828059219205
300.35189279430085207
300.41755872506394098
300.41495873499985692
300.300020378408135
300.11306175194124535
299.99034196386656959
300.00457137696969312
300.09369103226651987
300.20175435090334304
300.31639994318533127
300.35396740186763509
300.24411529020147782
300.08889004563167191
300.02828183486968783
300.04833006659060857
300.05848974574638532
300.04728828746431191
300.04757685007484724
300.06376466676397285
300.07350996965743661
300.06164285966792704
300.02060402493060565
299.96939546138548849
299.95103428540517143
299.98350571730333058
300.04721157275542964
300.09719398769630061
300.09085162180514317
300.00381685629207595
299.85915842136256515
299.71828794951568398
299.64753953218161087
299.67381242160627153
299.76245635597615546
299.85076097722048871
299.89922385968918661
299.90253068651094281
299.86825201935749874
299.8089882691365915
299.74087157753774591
299.68638368085328239
299.6593283134911303
299.65117348974121114
299.64493379074377799
299.62844436039159746
299.59793661630016004
299.54579593889911848
299.47460276847726846
299.40422495715625928
299.36159737393086289
299.36212032710409403
299.40047281817965086
299.44990339685801928
299.47385899589323799
299.4542543813439579
299.40857595708030203
299.36980614809169765
299.35433818131093631
299.34683010563799144
299.32452754924526062
299.28434317204283843
299.24335137156924702
299.21422491986891146
299.19123989900339211
299.16027711038896086
299.11599300023885917
299.06968265062471346
299.03606340610349434
299.02748941064987775
299.04300061286062373
299.07107596156208729
299.09608978732472906
299.10640717351310514
299.10097849743658571
299.08713250642227877
299.07455011405829737
299.06859576043251536
299.06828709270786248
299.07026953794826341
299.06955348840915576
299.06164795772826892
299.04459275417480058
299.01900094060499669
298.98905893181972715
298.96122357288578542
298.94375937319477998
298.94330033106507472
298.95950118072659052
298.98639261927303323
299.01379552295071562
299.03472200732858255
299.05358515351639426
299.08264603250296432
299.12705970452827842
299.17515669495406883
299.20553937836604064
299.20961838249786524
299.19997805120686962
299.19904352674484471
299.21644505275304482
299.24078807694513671
299.25156731892502648
299.23664656469804868
299.20089251737226732
299.15828446401701513
299.12106814345116845
299.09785487222433176
299.09181415150510475
299.10085752377329982
299.12209171124067097
299.15313972190222103
299.19155528147490486
299.23072350860775259
299.25868106631611454
299.26571692055489393
299.25247196293952356
299.23420144067046067
299.23044694233260543
299.25344615021248273
299.30021369378249574
299.35438536666526943
299.39716751073109435
299.41405280939858358
299.4047312092023958
299.38337446800250063
299.36844600892976587
299.37097301808313432
299.38845182572271142
299.4088409449690289
299.41970672836760059
299.41777607418845264
299.40546852398546207
299.38900891916955516
299.37285184420602491
299.36313008362617438
299.3684146247757667
299.39548052773926656
299.44484144192614394
299.50762502169339996
299.56870737904972657
299.61330800744752878
299.63286946187730564
299.62745408142092174
299.60384182928305563
299.57422139802469019
299.5521973542972205
299.54732009508614965
299.56149068456130635
299.59002741146974813
299.62392318817842352
299.65493767005671089
299.6787415647034436
299.695094264807949
299.70532983579033726
299.71114341949760274
299.71361206609952887
299.71598777694896398
299.72217250169069303
299.73870295896608695
299.77239128991686812
299.82808769896877266
299.90177326365267163
299.98470588028686734
300.06236560057419638
300.12130141685230456
300.15313235573381689
300.15797783090761186
300.14480926873159206
300.12589157201875878
300.1123834224354141
300.11090979372892207
300.12249755477614599
300.14534267299256953
300.17631306665077773
300.21000023610207563
300.23886551956695712
300.25537584763810628
300.25571598223058345
300.6154388114023277
300.57429876898453358
300.53918608831946813
300.51836820346522927
300.51667854070029762
300.53363167371111331
300.56279268989720777
300.59392759083465307
300.61640350155727219
300.62302980429001309
300.61248530738293994
300.58967280961218194
300.56261371329594567
300.53935288046631058
300.52528090037623087
300.52181027003018698
300.52848847669798715
300.54346981449350551
300.56459750176946955
300.58919816262454106
300.61400618275160923
300.63567301935563592
300.65144836519726823
300.66106233545991699
300.66687473908223183
300.67337937956835958
300.68533180237676561
300.7056721566961528
300.73413907370530751
300.76651381246796291
300.79571743645658444
300.81381164567596898
300.81432208621430391
300.79416175314395332
300.75513182671556933
300.70380755909729942
300.65064662824903507
300.60661170829251887
300.58102810975736929
300.57894616335124738
300.60016244830649157
300.64053156175407366
300.6934796698219543
300.75189247648620494
300.80952023806031548
300.86069321871468674
300.90061209084467464
300.92562514097778603
300.93415783306312505
300.92820212538879332
300.91337354903464529
300.89813734292420122
300.89100724912873375
300.89795785487649482
300.9202266435539741
300.95370347351735063
300.9903806162096771
301.02109029859110478
301.03829699459737412
301.03837122747864896
301.02209128277837635
300.99408875590609114
300.96158767738961615
300.9326856734365947
300.91487315099607258
300.91454838469246624
300.93647457869093387
300.98172657398271213
301.04684829627160525
301.12333179506606484
301.19954208276618601
301.26384610096039296
301.30860831627421703
301.33260929091193248
301.34141737616363343
301.34529487862357655
301.35504837873213546
301.37848025281880382
301.4173962240534479
301.46767391578254092
301.52121548202268286
301.56827612697702534
301.60115331421684459
301.61517408254837846
301.60980684304837496
301.58839644222996412
301.55699471426993341
301.52286198573267484
301.49311335892258512
301.473345338258639
301.46665331501242235
301.47363604842450968
301.49260681622149605
301.52046491227781644
301.55323798965520155
301.5870514430337721
301.61889276049441833
301.64738683095873739
301.67282683830700307
301.69708403176866796
301.7233871481153642
301.75510881143185316
301.79484964072577213
301.84331334165324279
301.89869382620332772
301.95686467420256349
302.01178825637668979
302.0569901316118262
302.08709154309087808
302.09869261981123145
302.09162112409541123
302.06865718163311385
302.03512981275031279
301.99750365428354826
301.96192437159345445
301.93311559527739973
301.91340708573000029
301.90303458449227492
301.90062309538802765
301.90402948885912338
301.91083765826721219
301.91943372337146911
301.92855032172366236
301.93735470182701874
301.9452692744892488
301.95200903931515768
301.95778613043540872
301.96323653439662849
301.96949190849528577
301.977707883098617
301.98841504315640805
302.00106917713662824
302.01425634662064112
302.02581975557205851
302.03408327442838299
302.03826366181567664
302.03914446727480936
302.03828634432358058
302.03753523893328747
302.03800681335837908
302.03941418983401945
302.04014914886357701
302.0376251058132766
302.02940661410201528
302.01426790497993125
301.99302060221799593
301.96844145471749243
301.94481145645994502
301.9267984389878734
301.91832495884398213
301.92184473943382272
301.93767084042355009
301.96378829835265378
301.99641716282945936
302.03083446882601493
302.06215155679058171
302.08605462969069322
302.09952489886103422
302.10119304105506899
302.09142556621964104
302.07186728661531561
302.04533343522626865
302.01551360248981837
301.9863987567475192
301.96187603825450196
301.94493689377077317
301.93729879761599477
301.93937187176430825
301.94970546189057359
301.96507553123814205
301.98119335515480088
301.99400912542466813
302.00024598179362556
301.9984402993806043
301.98888156345321931
301.97365422143235492
301.95581763779199491
301.93863765866416315
301.92508966014241878
301.91760969432579031
301.91758075401043016
301.92572340197665426
301.9416853122427824
301.96419492394488771
301.99131687028932447
302.02041080025031761
302.04822535283267371
302.07155766886324955
302.08797178004817852
302.0959701229966754
302.09511695823016453
302.08597811608046868
302.06951905049334073
302.04683925114642307
302.01865478268655352
301.98585177387815293
301.94941591403676284
301.91100796937689665
301.87359877637686623
301.84132319041128767
301.81867482821928661
301.8102707173646877
301.81942350334736602
301.8477389284088872
301.89461694190413255
301.95719649961063169
302.03044045471460777
302.10800701182290595
302.18291069231537449
302.24831585911266529
302.29852636637235719
302.32947437800334001
302.33901226536636386
302.32713972567785277
302.29567520086766308
302.24783368480700574
302.18813576189342029
302.12184014740171278
302.05455979898863461
301.99188374123713174
301.93899957790586086
301.90004193601981797
301.87798691253772176
301.87394317411644806
301.88720892925255157
301.91542502108234203
301.9543977478451211
301.9990824959873521
302.04420534945086274
302.08428977400012627
302.11506494943745338
302.13310071545299706
302.13648812620454009
302.1247839895657421
302.09890371495077943
302.06104718068951343
302.01423527322879181
301.9621202862994096
301.90853625649953074
301.85735892815932857
301.81199460605353124
301.77568483214730577
301.75092304789842501
301.73936042230855037
301.74183677279319227
301.75827622020938179
301.78772598900354751
301.82859638155895254
301.8787620358281174
301.93585777515102109
301.99749481796857253
302.06130522747253053
302.12501456230313579
302.18644122692427345
302.24356997039410544
302.2944255232802675
300.03285534547592306
299.89259893184322436
300.20822289470527267
300.31911474623547065
300.0829583183387399
299.93545668285844386
299.99597606342905465
300.01494193534244914