/*--------------------------------*- C++ -*----------------------------------*\
  =========                 |
  \\      /  F ield         | OpenFOAM: The Open Source CFD Toolbox
   \\    /   O peration     | Website:  https://openfoam.org
    \\  /    A nd           | Version:  12
     \\/     M anipulation  |
\*---------------------------------------------------------------------------*/
FoamFile
{
    format      ascii;
    class       volScalarField;
    location    "0.0115";
    object      k;
}
// * * * * * * * * * * * * * * * * * * * * * * * * * * * * * * * * * * * * * //

dimensions      [0 2 -2 0 0 0 0];

internalField   nonuniform List<scalar> 
106891
(
0.028682211980612930258
0.028692269674988044037
0.028699661772168167523
0.028706182416283004821
0.028711061804989918
0.028714490700460261474
0.028716916245250932727
0.028717840510703040308
0.02871508090506121047
0.028707653769887698375
0.02867997796060188509
0.019614309170777246422
0.020044203629588197568
0.020452758618317665867
0.020829849075672753761
0.021160275828511744545
0.021414261156809732273
0.021571800453447260992
0.021634150008169959062
0.021639403506540144662
0.021607713043451801799
0.021437808724612799488
0.021120306768948497039
0.020914311985914261355
0.020818751551739182043
0.020792494387162768765
0.020794045344058258162
0.020831444178179954474
0.020992168474919869342
0.021339560024947048372
0.021675472242209743029
0.021981701691413058075
0.022256868410545728454
0.022494872287235897351
0.022695801478334297341
0.022859706779373441254
0.022992688453315510838
0.023096877521689557905
0.023174240107756368529
0.023220643961747718803
0.023238606855174925858
0.023238125316901506873
0.023225132902521823663
0.023164064776488357822
0.022957137084031936647
0.022696048962841511298
0.022510376414364013931
0.022395931879632974965
0.022339337654054165772
0.029890867453835144596
0.029941974096895525997
0.029989779744956361618
0.03003373282896000529
0.030073087096460286022
0.03010597551931363039
0.030132807130014351016
0.030153559395514901997
0.030169034082192271173
0.030180055158365283463
0.030187495019719959993
0.030193364174518861481
0.030196861335384898861
0.030198770081567880702
0.030200087230977338409
0.030199384805531748199
0.030196905143141328232
0.030182170514746507056
0.030166626026850513337
0.030125567229614111375
0.021135349575904027047
0.02152228949761557722
0.021858575196695206877
0.022135637526171036971
0.02233703785841652939
0.022455062063714489873
0.022497774296877139089
0.022498780112491061078
0.02246280000519240011
0.022283629475497366418
0.022000468729146158836
0.021830815299212966846
0.021763900346292448795
0.021753387817612816757
0.021774417552838737366
0.021900972548434129161
0.022319668841239776597
0.022825490364510116897
0.023238803382787501933
0.023568775601248679458
0.023821040432266044062
0.024003506812126082504
0.024125189897600211181
0.024199810384694681042
0.024241159089610306993
0.024263451723509400076
0.024274403187154416917
0.02427896484055816137
0.024278000274691163146
0.024272506961712542184
0.024251204222458612458
0.024172692492228559091
0.023943244257758684868
0.023693799429959947617
0.023511887382188869505
0.023399713560311275612
0.031463244654066781225
0.0315042785169048975
0.031543360277413695636
0.031579358237932918241
0.031610686970853757449
0.031636918585021600592
0.031657740826054638072
0.031673449734270692213
0.031684489042402369519
0.031691566128376640055
0.031696327848089081436
0.031698427546716492764
0.031698951049842848116
0.031698472276887733334
0.031696875545955696674
0.031692776298156567771
0.031684288486396136597
0.031662377292238287618
0.031650674403911373267
0.031621474352111537953
0.022409992662320143281
0.022869158024712597094
0.023295830929536760073
0.02364922041211941009
0.023893432929380526569
0.024016237260239374496
0.024046747233277092348
0.024032131483209713541
0.023915986815654433073
0.023550373839383145769
0.023238156564655974151
0.023089639619538110393
0.023051597515123648657
0.023062683325957435143
0.023169230769901214689
0.023572543665211005692
0.02407670971125734985
0.024456413824392383982
0.024734652891545406278
0.024940651508055730612
0.025096284758708873458
0.0252216298187100188
0.025325761969666477774
0.025415034659353522711
0.025488396186644796809
0.025543990178754347187
0.025577028403326235173
0.025590129295009741983
0.025589642750794963644
0.025578468356894680513
0.025528520694569848543
0.025345184372307191789
0.025013104352212392478
0.024750993800564558001
0.024578415471756927951
0.02448879477735821722
0.033097178990163213241
0.033122494747919485614
0.033146405568748281423
0.03316777321916617588
0.033185756314216295626
0.033200085209922521046
0.033210604461567670709
0.03321790051963586371
0.033222136366699767107
0.033223656967823547714
0.033223425275394409539
0.033222045349261097869
0.033219037754817916375
0.033213823064237507632
0.033200627798698090221
0.033190125849035106986
0.033174927474142884565
0.033168827910772240297
0.03315345485774465889
0.023600434590952137914
0.024210465628271143901
0.024792300288583212636
0.025273715232233623373
0.025601489754806680543
0.025765104862273978392
0.025806149185622156983
0.025791465024345469614
0.025666243677388022454
0.025256968566725320618
0.024882251855958093661
0.024682532623049709131
0.024612366039183160293
0.024605812593811556693
0.024633310630813101683
0.024766681306202572438
0.025051873886766985039
0.025307866399029238513
0.025535458382661142818
0.025749378261047704136
0.025966758391710587084
0.026191781067629534702
0.026424031647609324408
0.026652044882929260688
0.026857713630254263781
0.027020980604752286441
0.027131720395595731316
0.027185799526213364624
0.02719882895430385944
0.027193667192645706171
0.027158338822006390656
0.027016113283398777989
0.02665340335182464146
0.026323420190265994084
0.034704668688560758039
0.034707836553780825606
0.03472295285727091535
0.034762853564110518523
0.034806630007391321791
0.034847270561041754355
0.034883050475504377708
0.034912899705324698663
0.034936416646241266748
0.034953972096769599098
0.034966638236799928163
0.034975086833280884246
0.034981291155388762049
0.034986266249499006764
0.034990585937293178231
0.034994010380292005225
0.034996496299844276345
0.034998474339744685413
0.034999452934264645154
0.034994822784648729752
0.024863251699651821996
0.025290758448991725732
0.025715996593107796897
0.026093932980038186259
0.026373638101902952685
0.026530898324833785545
0.026581144622673087696
0.026579485492528337476
0.026518289600899979525
0.026268984840796365254
0.025992403314434735923
0.025850333398703823073
0.025807347271987638587
0.02580823413529512167
0.025853447844327706595
0.026058774680807587215
0.026502807676055416264
0.026881032775486601166
0.027170761475608196794
0.027382359248802050355
0.027534016372840523779
0.027648931259002397509
0.027744594322831606092
0.02783440170134987221
0.02792417694848854659
0.028009280601144312395
0.028080334065846760533
0.028129448168306637329
0.02815160393716650139
0.02815498174359217648
0.028149966811873448902
0.02812222143303398994
0.028014705390402235702
0.036534313972529305903
0.036566694186014617185
0.036597180505140845808
0.03662591134117847147
0.036650973941362290087
0.036671984199063138721
0.036687984347818253239
0.036699496484733321044
0.036707124171923795342
0.036711983743800351288
0.036714434486654304313
0.036715215123448080581
0.036714904453422167463
0.036713999040028096055
0.036712271972199853054
0.036708896650914202286
0.03669835713911972358
0.036690266031267564084
0.036671013420680562134
0.026792992687195378576
0.026967116396268892009
0.02709830523440874897
0.027178435801571823593
0.027208315580274141515
0.027211293177694124285
0.027184913076389306125
0.027049766433309110208
0.026859122312843916602
0.026760828350222014976
0.026736702700436296848
0.026749903079252651539
0.026856942244629818106
0.027262003431318983931
0.0278091155708142454
0.028230801418201924291
0.02854047802767480102
0.028763261568865369777
0.028923735127962691555
0.029041034415949615322
0.029126099615107536867
0.029186599943366992732
0.029226128707644318666
0.029249079481578170447
0.029261418065795904292
0.029265752578972261538
0.029266321036826102586
0.029262302141769329367
0.029244754683909572612
0.029185678550850531476
0.029006895851328384078
0.028786142761003954971
0.038405657393890735296
0.038430621617638861809
0.038454734263975734465
0.038477720557903327681
0.038497655997753510437
0.038513872736616827641
0.0385265113168315812
0.038535684640918610455
0.038541663555083670312
0.038545236991769510349
0.038546319469461798324
0.038546225209029151559
0.038545210724515777123
0.038543139514629475018
0.038538138038817268405
0.038533146586806427125
0.038521750584156806696
0.038513963968009136407
0.038494957032539085795
0.02880741884997222238
0.029014838018224027583
0.029115006984269376639
0.029140730941619931438
0.02913075510036866253
0.02903862048404127344
0.028699247998992732933
0.028321777625732822564
0.028095360868329418563
0.027999974699909984527
0.027984333226715053106
0.028005130899964501834
0.028127152541375613493
0.02850918663891844132
0.028953593259909059243
0.029338013012115801009
0.029678485569195198895
0.029991563437274236514
0.03028212786664381817
0.030551140063401625163
0.030786624023949837187
0.030973890610026769132
0.031098077796548651702
0.031166489862845897507
0.031192483930156531674
0.031197142779468438334
0.031193621705440731373
0.031170215312466865998
0.031080218996762578459
0.03080507629444463602
0.040302805863240802331
0.040310060119140664336
0.040318513806447055237
0.040326849337821296659
0.04033446574846113325
0.040341188474598006775
0.040346647447039557521
0.040350639164567492223
0.040352972265825813591
0.040353915686981559063
0.04035370072328926111
0.040351993686182058285
0.040349654978948552853
0.040346810858346467132
0.040343563119752824664
0.040340751297348362292
0.040338134628390982794
0.040336395287741445836
0.030467153516710150651
0.030749402640440782336
0.030886188874271684746
0.030919465743646103173
0.030908758645141472948
0.030812026325838199475
0.030461159988629620682
0.030077075927730061167
0.029850625237670486145
0.029758402130209301445
0.02974477218161682146
0.029762904375571441751
0.029863725788652855514
0.030191189368002805532
0.03059195746674231442
0.030930511884063368461
0.031222306974046602074
0.03148278508147098198
0.031724962680168708462
0.031958549186716207757
0.032190224889469140623
0.032412614981753261334
0.032606181153207423884
0.03274305173115336226
0.032817424455282025175
0.032840366416137939387
0.032840695504368556945
0.032825743473145110873
0.042416063915499936654
0.042419978186246466711
0.042426828795878300526
0.04243539835832242646
0.042443663177764635874
0.042454139391905121315
0.042464343341491343764
0.042475988444282027079
0.042486382988744228473
0.042497196697200936844
0.042506309625878424541
0.042514522396904688706
0.042520002894820461969
0.042523633683060675648
0.042523318836956661149
0.042521335419024100521
0.042517295170078975297
0.042509850126149592575
0.031325385401616605285
0.031570584888971763016
0.031672517491849044857
0.031688569493422275025
0.031666724937811932539
0.031536461685135526445
0.031316398571908078685
0.031198019314352749137
0.031166214174186131908
0.031176726084928770705
0.031279695792069947546
0.031696995706608624421
0.03224904629778832521
0.032593271449996956413
0.032752290947772683127
0.032799488581438253354
0.032800058640417371902
0.032781955196388254392
0.032767952965507857188
0.032771800216702430542
0.032806410038169801779
0.032955829764412157556
0.033288746118110661143
0.033566561251987793446
0.033752177057089716161
0.033847552701802882669
0.033875413272172812118
0.04392690726930686268
0.043913686338541604859
0.043907242265945119197
0.043894813277032443399
0.043888084139914206039
0.043872487571983788401
0.043863003295328960307
0.043840560220829778715
0.043826417285456581441
0.043794721367793831845
0.043775044033355067774
0.043734168751555460575
0.043709858924539594927
0.043660437077902014558
0.043632295713404066484
0.043577767711051089428
0.043549671493241834397
0.02911978668555032651
0.030219023847307607128
0.031301622740266529799
0.03203162636205165309
0.032442136804519280946
0.032624622628236642219
0.032678430600050246968
0.032689299154523315805
0.032705157318790742393
0.032764639704400799758
0.032987107164859794106
0.033306263199332955538
0.033511515175243165865
0.033600435254561591969
0.033608906856060612178
0.033561607855477793017
0.033294063358354546167
0.032657075819702285902
0.032179235289582344692
0.031921060675077120306
0.031827652404394911334
0.031821029785914070609
0.031859489761261107488
0.032064198938720644971
0.032738141582549014352
0.033550263937545996007
0.034174020612305400224
0.043440931370140947743
0.043417844462176537201
0.043370978601910553651
0.043345773835017101239
0.043291258625717816966
0.0432606235790836402
0.043193485743818961498
0.043153156211513638008
0.043064800889435116138
0.043010304691285063117
0.042894833306442899101
0.042829893958455510228
0.042703169440533372825
0.042637457990928835649
0.042478710120840930398
0.042483290887055658036
0.02354288328390269705
0.023727797035300562944
0.024360503753930565912
0.025552191189066174315
0.026674423531773242685
0.027632965882628618415
0.028392009273812468528
0.028944699982368343738
0.029310677633605872888
0.029517479237646485069
0.029606815889893094845
0.029621393360162652508
0.029601555027197481995
0.029479597650581865903
0.029001994713859918784
0.028015520022843309195
0.02717829511901188877
0.02656044696312139311
0.026150462107310930293
0.025913073497022036384
0.025804212209179739484
0.02577060885975949317
0.025770042145598238276
0.025787068222106444143
0.025868485789672563541
0.026154209958919084206
0.026993886469033268743
0.028104826772268828167
0.034906443496205294408
0.03488663201433279959
0.034876979387031180335
0.034854858048868724019
0.034841850743084150366
0.034810756153485250541
0.034790524434475472715
0.034744558797395568017
0.034715277212360916292
0.034653074781279241678
0.034617049940642283246
0.034545792265172882429
0.034508080679558912618
0.034416166916555732125
0.034440316515700161726
0.023032086751591997198
0.023220944909502206494
0.02372279959933306509
0.02429135403895820236
0.024810363955692551347
0.025256676192154731836
0.02561002139203856845
0.025868662110932277853
0.026040487624006337236
0.02613770828563332857
0.026180145608564187043
0.026188181033816090165
0.026180301881888232152
0.026133713875613466537
0.025951038135701775394
0.025580168062734099516
0.025282855420012746717
0.025088513994820409864
0.024988412800362340416
0.024952198979910595461
0.024949474166236489114
0.024960179747783941412
0.025010711207592316307
0.025140291914307041909
0.025291101864310081698
0.025499050302519407629
0.025777630187240885284
0.033232042938963160528
0.033230019305802528662
0.033223567293968504777
0.033218856413361710911
0.033205055701390588652
0.033194787454534697979
0.033170065655358571544
0.033153417177456477594
0.033118032949383029162
0.033096427717177606675
0.033052661271573746671
0.033027269511533507984
0.0329647209697850746
0.032958426113707701977
0.022795438381104163317
0.02304849472966244775
0.023294838122067566127
0.023537811856231209695
0.023780212511633130185
0.024027550273405886422
0.024282430968368472896
0.024534898022385294436
0.02476630230067639743
0.024948898133201641292
0.025060253415894375578
0.025104452701302557016
0.025106701565704957202
0.025084074034765008188
0.024969615969919065762
0.024695043238805450964
0.024475382890855504336
0.024337148720598070217
0.024262812137749504432
0.024231805638340736531
0.024223460414548488029
0.02422474456093789974
0.024235055053277807652
0.024278137330705603508
0.024420623882725676218
0.024707466637865702075
0.03201135525607226584
0.032000137842895910734
0.031991870939866141887
0.031970911299777589332
0.031956613418743361199
0.031924348425391532724
0.031903697913796436048
0.031859748595137335481
0.031832817394416991486
0.031776990299033712473
0.031745898045831735801
0.031674269712972637214
0.031662330513045240654
0.022315341180512707903
0.022500318863671760899
0.02268630721024224306
0.022880882709172094269
0.023090162706087637157
0.023310223561321643387
0.023530886667678049123
0.023725547193922835731
0.023868259933015747304
0.023945071894147459263
0.023965304436232320873
0.023958850122879637307
0.023904318965729191848
0.023691793060028821377
0.023420769131342847325
0.023248700153738220686
0.023161181981217752318
0.023129482509192365175
0.023126071337119524784
0.023130967663582923527
0.023153862383248121487
0.023230313902530299458
0.023449927743740255764
0.023778732558505492195
0.024125128870506468148
0.030781519107115195427
0.030776273462723074958
0.030761975637686730239
0.030751160958131122658
0.030726482940258773024
0.03071054852008003877
0.030677027046775291047
0.030656929872320444475
0.030615630546992397137
0.030591596919260496262
0.030533016541887472023
0.030522708368404451867
0.021575188306162472462
0.021841112696643807944
0.022074794310330134867
0.022272977479845593174
0.022435454643953044174
0.022564844050974672968
0.022659436461509155358
0.022716335459324270285
0.022739479650027708685
0.022740879684394550014
0.022725247865906621214
0.022642837425233087317
0.022431035182971906933
0.022264749664588835698
0.022178443400650352246
0.022150450741530099824
0.022149703537306816847
0.022171056659697024188
0.022267445516942704214
0.022427383456105128012
0.022573385780776805687
0.022718625459416465912
0.02289265491435812927
0.023101421323174692324
0.020951527851957675586
0.021149815505557861828
0.021326626189996020222
0.021487508364244158054
0.021634643710095179114
0.021765462716513469393
0.021868639836815754324
0.0219327077970200221
0.021956509333279236595
0.021956658842422885347
0.02193445387962079593
0.021831394834874211924
0.021683952159521471814
0.0216035309918147303
0.021578514131655849445
0.021579441677576270686
0.02161226171874363125
0.021721581526484783076
0.021804874227210661874
0.021852418577473886607
0.021897964800102118904
0.02198824701059644629
0.022143206610251306432
0.020589567895374163292
0.020715579112237262477
0.020861683406739779667
0.021018702690227184654
0.021162181704936403048
0.021266684032995288034
0.021319960193256520808
0.021329897355735510933
0.021319023422632664422
0.021248721673556632272
0.021072296145153365798
0.020949532405533009827
0.020896741472023350888
0.020886857189203852231
0.020894926845719551112
0.020945440534786297776
0.021046222110337395317
0.021137277327422834827
0.021233449649808468912
0.021362444830766408321
0.021530252157337999991
0.020338774925425986279
0.020351034961731444967
0.020351263725870816224
0.020335713466708371655
0.020254053345889266174
0.020064057633137174358
0.019935606387559600544
0.019883371183835412549
0.019875882386433788712
0.019891103818016522831
0.01998049692703891822
0.020153030539699731682
0.020282562205557658208
0.020389723705930996173
0.020506564364216363361
0.020672373214571503758
0.020895768035921403333
0.019278858028562929211
0.019181222836951655059
0.019101106345111359269
0.019054959693050828318
0.019039821043067988587
0.019041906022058560644
0.019073376133464967769
0.019213389820925033669
0.019483485475218897259
0.019718686914717432901
0.019910387165346678934
0.020067540082846210825
0.020205872896584466114
0.018960038221874721959
0.018926987458120120983
0.018803686409735596158
0.018669333193828352435
0.0185923769013346743
0.018560263838231678968
0.01855337414312633465
0.018557441454841845652
0.018586374561306871767
0.018653230473339305062
0.018735151776816137692
0.018852994660782652209
0.013008241772618675883
0.013145843123622087331
0.013186425854622997253
0.01318622441647147002
0.013147924510142150814
0.012976514739462185685
0.012713408808034504585
0.012507250595357599296
0.012340625615818882899
0.012195381968496144323
0.012066572877760060184
0.011953417264639399839
0.011862438982935008883
0.011800130639769163682
0.011768351012003581968
0.011757312498295502748
0.011759262256684813522
0.011790160494936086089
0.011932599760621232995
0.012450176175532547129
0.029555030454572670667
0.029941747828427379974
0.030067824247789160658
0.030076362534229676704
0.030005016465176465729
0.029633444654819589281
0.028948674004550468269
0.028441609243316068323
0.0281007669321453879
0.027844559919358091021
0.027622071514937972248
0.027397560893431534973
0.027190225772745654081
0.027030983487078028699
0.026945973476175749672
0.026913240321702565361
0.026913925944543389684
0.026955445660408177549
0.027128950036708354004
0.027694005872070909247
0.02912335597496480688
0.03060732888350208708
0.091647084299547348918
0.09346170500059576558
0.094350931246404201591
0.094691795682653609467
0.094737458409960298433
0.094572873845610583299
0.094063045385306326418
0.093875193143623913983
0.093929602274639673043
0.094117809008174943552
0.094505698088119594047
0.095296162325592015385
0.095996397074403744254
0.096447731844294351533
0.096729783231632893159
0.096953023123855799903
0.097288357237681200029
0.097979017545879329432
0.099776971586249194046
0.10311623300980757301
0.10657478995917692155
0.10950899713233154531
0.11155708668669113426
0.11278107303472696687
0.11324317353697818667
0.11328635292833244552
0.46816129981411308547
0.47455303680461285998
0.47874282894054537296
0.48096928327363869249
0.48203267959284940014
0.48270775051765718588
0.48342375395091141677
0.48457042651635090502
0.48690767387365624375
0.49242692088655670712
0.4998983000441504787
0.5073495448457464585
0.51426706728051085893
0.52036659409319785397
0.5260143010737692304
0.53174251336863842532
0.53834839139034973421
0.54619171948602140976
0.55525976411712230085
0.56517604293053602671
0.57526276412681287553
0.58467994680247248329
0.59273485209812504237
0.5990442015169011869
0.60341576038576549834
0.60623180201590676219
0.60779428277072955478
0.60853272143469727684
1.9921329379042920227
1.9991630217777232037
2.0034934761283880178
2.0060824159393608745
2.0082447707625634692
2.0114053555853286248
2.0163700250503850953
2.0234388645451417688
2.032275895040076108
2.0421270774726978381
2.0521685443567765361
2.0618464954981852166
2.0710853984392318949
2.08044026674729432
2.0902176062777506615
2.1011477315310340686
2.1130975161211913438
2.1255030385988442632
2.1375110630693447966
2.1477619046580236351
2.1551782796598448755
2.1596533187273432297
2.1612894782515059688
2.1614172930181299037
2.1608450437830875046
2.1592775222505338206
2.1580940267390618104
2.1577723376917616882
2.1581657084401442148
2.1606657055768532238
4.3566032784303807546
4.34565946749103027
4.3341672808289661845
4.3226821367599912449
4.3117654170261348057
4.3018397882846040048
4.2930875275329141161
4.2853559736482145226
4.2781045081249953199
4.2705450002149163424
4.2620333228151912053
4.2523451871742095065
4.2417240767046617833
4.2307454143388598666
4.2199072220808799827
4.2092810644730214165
4.1985144198712722741
4.1870755344581533919
4.174557355426023797
4.1608273116681600001
4.1460784685760776469
4.1308048427172945338
4.1155787578928837434
4.1009186554493410881
4.0871279112970819725
4.0744035379228620286
4.0627266285728174111
4.0519261961904264879
4.0415866243128117929
4.0313263930235896382
4.0208049953660882636
4.0098808758631223625
6.0896845984630134652
6.060006014207031555
6.0306856569579920802
6.0014054603156612444
5.9719534094175381611
5.9425495449720058261
5.9136484145617904673
5.8856175825205081509
5.8584732399925254498
5.8318528334202186514
5.8052755853041420053
5.7785133965326540562
5.751752521402608842
5.7253864220148615871
5.6996445359889280624
5.6743529048702257001
5.6491554117550295544
5.6237737448809337337
5.5982262043747335056
5.5728369974405458365
5.548049323508176478
5.524157143494793587
5.5010806306633712737
5.4785074880830206823
5.4561397458504004021
5.433836961441397051
5.4116352615734815146
5.3896391538575558755
5.3679418068989974699
5.3464432928786864707
5.3251011695950758451
5.3038780894222981033
5.2830171106660497315
10.601682524046269762
10.500483808402412578
10.400547424133941732
10.301486852484398327
10.203190259249916849
10.106843073761186957
7.2541790454111154673
7.2178307436656288232
7.1818823018721085205
7.1457504822324251492
7.1093095780206549961
7.0729695313049409933
7.0373710139508425243
7.0029970013683966457
6.9698509393112804133
6.9374201885049426863
6.9051075851826215768
6.8727149832043927802
6.8405680442352236881
6.8092181658660377863
6.779004177932569597
6.749774212831007425
6.7209905346208094201
6.6921710812216241848
6.6633189459090340634
6.6348888324395627336
6.6074209476267204977
6.5810602790215924074
6.5554758898011851187
6.5302261376645160951
6.505073406481877818
6.4800334600611586566
6.4552919413572933394
6.4310709987568497326
6.4074063295501124671
6.3841381163156025735
6.361103880934313004
6.3384561852259100334
6.3164818787606682449
6.2954304651122852121
10.588977052715755178
10.489105216291997991
10.387505345643523569
10.285028990369070812
10.1823182071207885
10.08107907456901664
9.9836304981552412841
7.3911301384127421343
7.3537304298068733033
7.3154600922446944011
7.2766463198998678763
7.2388296883544436255
7.2036945321106617968
7.172128572430307436
7.143718450256706376
7.1169597730098557165
7.0902210049149223536
7.0630143791287656185
7.0361837541692251463
7.0108940878859149493
6.9874581317172044237
6.9650208363913348464
6.9422645078862750267
6.9186083668897815357
6.8947732963924783789
6.8721666396543001909
6.8517654995088390635
6.8335233590336814657
6.8165460574736096433
6.7997513508767015722
6.7824806330961600054
6.764943730845653036
6.7478826301425014478
6.7319029675809165525
6.7170466218432682837
6.7029912993747506889
6.6896030900338754321
6.6769597460264940025
6.6651670956078321595
6.6540389958996977171
6.6429102440082710146
6.6307126233830153694
7.1644597852207715714e-05
7.12471668228093955e-05
7.0895159653638350496e-05
7.0600653592851398592e-05
7.037488186311409552e-05
7.0231968154893384881e-05
7.0154452478909381727e-05
7.0129727012122885588e-05
7.0126098756279655862e-05
7.0172507427673682778e-05
7.0146968365651489203e-05
0.00013885632735094732013
0.00013914763759389578586
0.00014042540334649160762
0.0001473206881786759024
0.0001764959458872654961
0.000237549822629006186
0.00028092251321399085455
0.00030164264191649621831
0.00030615832944668483571
0.00030460022346033197548
0.00029410801671040124813
0.00027644891300421757779
0.00026738847895620398423
0.00026465933484493773522
0.00026461098423415373463
0.00026536263345856332544
0.00026592773918997773168
0.00026586455182151799226
0.00026500700654862502413
0.00026117706205634240186
0.00024730709606118797105
0.00022081124690827557419
0.00019780117800965096387
0.00018020151470619824021
0.00016859572606163253676
0.00016269508503213150961
0.00016098740794238911998
0.00016115395831112563777
0.00016345012733421539881
0.00016955854391902970817
0.00017279845708385505368
0.00017327941827687511002
0.00017249154132052062043
0.00016804948092209303235
0.00016086986313007550385
0.00015693301869111524823
7.3534032114180446389e-05
7.3496894913067603193e-05
7.3346537605811632692e-05
7.3141742249705529299e-05
7.2958798744276518833e-05
7.2779497986366257188e-05
7.2596191734604451507e-05
7.2417200797968579165e-05
7.2275699849154534881e-05
7.2193670654384381143e-05
7.2161796167339212313e-05
7.2152856818332304395e-05
7.2152878246272279632e-05
7.2160840447742257732e-05
7.217220917464475425e-05
7.2198327988722446982e-05
7.2221158827080676984e-05
7.2290248901487176667e-05
7.2341427683366522688e-05
7.2486576965602298904e-05
7.2476508295874752792e-05
0.00013162604025181829336
0.00013224136029800170303
0.00013425591498373101534
0.00014295196967254063442
0.00017700424485591527575
0.00023988428790024050852
0.00028478400270502213579
0.0003074919930070288865
0.00031371797918906411994
0.00031313639468631731177
0.00030651690242802765406
0.00028919954294615160062
0.0002778061451052372499
0.00027288657124120002922
0.00027143593634259665769
0.00027122600078368388999
0.00027116853566589344026
0.00027092729301084027141
0.0002698117020138481037
0.00026544284043906579132
0.00025008140810768938632
0.00022279490938657288933
0.0001993452820547405083
0.0001815585649897457016
0.00017001602347064290275
0.00016432454436846432168
0.00016277666824960983737
0.00016297588283298739616
0.00016527906674173578269
0.00017053760059993966556
0.00017305559621717250471
0.00017338389751446033819
0.00017265083919794761919
0.00016865760550190529677
0.00015955400709626680884
0.00015253952029470118712
7.4037716350806455335e-05
7.4053938557977461686e-05
7.4107899979418721337e-05
7.4209060413335772486e-05
7.4309544572149875815e-05
7.4409246997081016995e-05
7.4494521860571488703e-05
7.4554756834200837986e-05
7.4580142349925989537e-05
7.4583594401668023297e-05
7.457673938794977741e-05
7.4551599144059545405e-05
7.4515656058757098463e-05
7.4481572421342484244e-05
7.4454531503905465217e-05
7.4436562795321335978e-05
7.4429594145239058914e-05
7.4439982657340856794e-05
7.4459699005237372669e-05
7.451295485663257201e-05
7.4534239015471966876e-05
0.0001256305553407647223
0.00012955217742716609451
0.00014158700144342080689
0.00018178890197330797493
0.00024066179995879831877
0.00028270335872104601161
0.00030469141365621458823
0.00031116517388635547576
0.00031082073239668790232
0.00030501792363148085181
0.0002883711180697320995
0.00027688523380883334028
0.00027221337397177671358
0.00027120138708245088459
0.00027129346353597780976
0.00027171426536724645456
0.00027172177539409652844
0.00027114581496722134574
0.00026817991991849566245
0.00025692847002201497876
0.00023038511453250267412
0.00020607275304486421955
0.00018768394292717705202
0.00017560383936722153992
0.00016936401354324570785
0.00016739536987362633449
0.00016739415059888998385
0.00016887069682312846951
0.00017311212866018789642
0.00017542578395203652867
0.00017575259422683944029
0.0001750582289712775564
0.00017108858604464167422
0.00016047994665780923661
7.7251864853121880489e-05
7.7097388084511057535e-05
7.6916685292149666918e-05
7.6709389922221925132e-05
7.648176187350632857e-05
7.6248990034389572132e-05
7.6029129488490825571e-05
7.5830083855456511459e-05
7.5656480632158484758e-05