/*--------------------------------*- C++ -*----------------------------------*\
  =========                 |
  \\      /  F ield         | OpenFOAM: The Open Source CFD Toolbox
   \\    /   O peration     | Website:  https://openfoam.org
    \\  /    A nd           | Version:  12
     \\/     M anipulation  |
\*---------------------------------------------------------------------------*/
FoamFile
{
    format      ascii;
    class       volScalarField;
    location    "0.0115";
    object      p_0;
}
// * * * * * * * * * * * * * * * * * * * * * * * * * * * * * * * * * * * * * //

dimensions      [1 -1 -2 0 0 0 0];

internalField   nonuniform List<scalar> 
106891
(
100878.49733757659851
100864.05710074742092
100851.35255275333475
100842.3953488083207
100838.80479808754171
100841.34563581379189
100849.62811404412787
100862.08341356129677
100876.57485204744444
100890.65300738804217
100902.1436905520095
100745.39912039984483
100750.95333154623222
100760.12600288852991
100768.9533181405568
100773.98630349035375
100774.51265662176593
100772.75666210963391
100772.80563602004258
100778.47231230155739
100790.34822939625883
100804.62574868898082
100814.43832975227269
100813.26910745308851
100799.39936907598167
100777.67860385966196
100757.6150096966594
100747.78071836450545
100751.42343181450269
100764.55689582006016
100779.98784353330848
100792.38860659014608
100801.53043628469459
100810.31583505537128
100821.53788120399986
100833.67545855954813
100841.79342707493925
100840.88406116320402
100829.43741824424069
100810.62251264465158
100789.89384263131069
100771.96370860910974
100759.3394115249539
100752.26459648810851
100750.13145870035805
100751.74758340515837
100755.3177685449773
100758.37033436994534
100758.61329649991239
100904.5571306105121
100901.31494918008684
100900.44259861452156
100901.48618987578084
100903.20622245980485
100903.80029150098562
100901.45309351840115
100894.93179476341174
100883.99720641209569
100869.52542307649856
100853.34617678633367
100837.82090047604288
100825.4186581413669
100818.21392361080507
100817.42836606188212
100823.13532425789163
100834.01729377463926
100847.98479822005902
100862.5169267662277
100875.29211015446344
100745.84543163374474
100744.25670312797592
100741.92753000324592
100738.83350958529627
100736.21994885103777
100736.27771352803393
100741.52074842664297
100753.53803390056419
100771.19870539756084
100789.4310271019931
100801.15258224049467
100800.39769168634666
100786.37743023765506
100764.94089751494175
100745.94329487824871
100738.18257667965372
100744.33913825753552
100759.86490001210768
100776.64361267947243
100789.32362828060286
100797.78410018874274
100805.58934378931008
100816.47041817185527
100829.39706315938383
100839.82092972364626
100841.9602896492579
100832.95288145796803
100815.11952689192549
100793.64278005663073
100773.67594582162565
100758.72766662410868
100749.88230321166338
100747.2279223465157
100750.17924433483859
100757.29730846411258
100765.96418515239202
100882.7684670452727
100877.40185043163365
100875.21143048926024
100875.90057914919453
100878.28141418624728
100880.47402832703665
100880.34158157493221
100876.18287961787428
100867.31587245725677
100854.23941115403431
100838.58480390692421
100822.62287709186785
100808.79641276762413
100799.37038743695302
100795.91832641950168
100799.00480171616073
100807.7669737769902
100820.27238767548988
100834.03436732752016
100846.86949443392223
100751.70064310594171
100735.43032829141885
100719.47335270613257
100707.89517214354419
100703.68042181782948
100708.08857095365238
100720.51466370357957
100738.99433610333654
100760.03436149601475
100778.05557859857799
100787.30304166172573
100784.50260280127986
100770.7721966496465
100752.64900634990772
100738.51797623714083
100735.43284390412737
100744.41792563813215
100760.9218531614024
100777.62832854344742
100789.72970000252826
100797.10493687467533
100803.52582728771085
100812.26162970415317
100823.65982751225238
100834.12915692233946
100838.40354876333731
100832.91506613178353
100818.59644565320923
100799.36025273089763
100780.13881108192436
100764.93010431641596
100755.47487423293933
100752.49939236033242
100756.21268474552198
100765.89911426418985
100778.77667769801337
100850.97973074277979
100846.36320661808713
100845.13160788595269
100846.50615658263268
100848.80801520212844
100849.93308175088896
100847.96729202120332
100841.86492496500432
100831.69486519560451
100818.58276722693699
100804.50702028353408
100791.67237176536582
100782.08780409487372
100777.24070321279578
100777.87055349050206
100783.69472087506438
100793.38997842746903
100804.76140591526928
100815.88442426365509
100735.5832728339883
100705.42585809383309
100686.05320389955887
100681.6253677685454
100691.56538127695967
100711.81746675216709
100735.94970899069449
100757.68504442107223
100771.38203622426954
100773.91010311432183
100766.21611980212037
100752.52886675784248
100739.39626553106064
100733.16051547747338
100736.90140782782692
100749.72160973065183
100766.8177879449795
100782.72195860024658
100793.59215201271581
100799.48097437650722
100803.48763028909161
100808.66944179337588
100816.96788055855723
100826.0617874890886
100832.09293958978378
100831.71320247701078
100823.45209801536112
100809.48840227653272
100793.48904361428868
100779.56291432323633
100770.07916144322371
100766.85779305129836
100770.87580061965855
100781.41668314400886
100833.62119553369121
100823.76206431462197
100816.47628156308201
100812.24207696453959
100810.93659651711641
100811.62416763062356
100812.64166289764398
100812.14309736074938
100808.79066756313841
100802.27169399744889
100793.18381173124362
100782.77261077829462
100772.64379881651257
100764.34562494527199
100759.11514073709259
100757.66136677358008
100760.00356813201506
100765.53360771140433
100772.83149933809182
100780.55064651044086
100747.11232061426563
100705.05338922985538
100679.37697163771372
100675.26702650271181
100690.08053792540159
100716.1809736716823
100743.75156950432574
100763.53815228003077
100770.27019295917125
100764.04715986068186
100749.32481553498656
100734.05292109277798
100725.42599205346778
100727.16766798398749
100738.61290271620965
100756.13726833832334
100774.72452336849528
100790.29393157669983
100800.26262846471218
100804.79929635253211
100806.10985849889403
100807.62342916677881
100811.89844153002196
100819.3465603129589
100827.63002223595686
100832.8714882270724
100831.88357037531387
100824.19324099802179
100812.54484812940063
100800.67678923674976
100792.13215019159543
100789.05916066738428
100792.18207313447783
100798.51125891676929
100789.19556312056375
100782.17509360250551
100777.7222668723989
100775.65558755604434
100775.18553975415125
100775.00633708736859
100773.7337011466152
100770.49256154934119
100765.26003914797911
100758.65214959913283
100751.59030269496725
100744.9798540759366
100739.54984763653192
100735.87596298863355
100734.22590730310185
100734.60823346687539
100736.4339511597791
100739.20917344914051
100722.33183630726126
100693.78426711338398
100689.88008642417844
100706.94601901462011
100734.71115808945615
100761.26870466359833
100776.33040339325089
100775.18119260834646
100760.10680872433295
100738.71142677192984
100720.6715754133329
100713.33699172193883
100719.56974314431136
100736.46450531444862
100758.45200398676388
100779.85938666998118
100796.78294479293982
100807.3221730455989
100811.68218490383879
100811.64352399925701
100810.79528744546406
100812.7178865330643
100819.42993577390735
100829.8862620817963
100839.91850759813678
100844.78208207670832
100842.55099714972312
100834.61339838292042
100824.87041785770271
100817.01257889792032
100813.39815113579971
100814.66219855315285
100777.93452034397342
100767.82530685406527
100759.30856833069993
100752.86842540581711
100748.7182125144609
100746.66204748724704
100745.99715735390782
100745.64265018305741
100744.49460983311292
100741.861600738368
100737.67108787295001
100732.2941598205507
100726.19800616857538
100719.69278861233033
100713.05078683502506
100706.61110878297768
100700.94315798135358
100696.39881338276609
100693.4346978670219
100731.52727924090868
100727.36801469382772
100742.39554670965299
100765.97802848574065
100786.02941342492704
100793.72633880235662
100785.73233309669013
100764.55206758234999
100738.63660646828066
100717.50149041581608
100708.08381484104029
100713.21694307272264
100730.72413970138587
100754.55356495428714
100778.63020152429817
100798.37657237725216
100811.71597611998732
100818.17134614571114
100819.48070293772616
100819.50271945909481
100822.20198244061612
100829.82750036858488
100841.54552110566874
100853.41891858642339
100860.72865395012195
100860.78878908777551
100854.60772703029215
100845.37021046879818
100837.29617003002204
100832.52150740929937
100752.57439485500799
100744.49236065911828
100738.27639897321933
100734.10640555992723
100731.94086495488591
100731.40012274980836
100731.67395532922819
100731.63674825589987
100730.16762001511233
100726.52351610914047
100720.52119495091029
100712.42265761794988
100702.64491790872125
100691.61490288549976
100679.80934548043297
100668.05781063984614
100657.29419034303282
100648.70213971417979
100781.51568387556472
100790.66000973102928
100804.53292778799369
100814.21587718617229
100813.65854574057448
100801.2340750698786
100778.76983874860161
100751.6672768046119
100727.74652735589189
100713.95093790529063
100713.60432515619323
100726.2435471436911
100747.27836797654163
100770.91340944569674
100792.54781115484366
100809.31817022660107
100820.4207077693718
100827.33585483458592
100833.07463873135566
100840.257651323147
100850.25393216581142
100861.92828802326403
100871.87817953569174
100876.39888476129272
100874.14745960294385
100866.11872758128447
100855.76494900314719
100846.43103969861113
100740.53746454353677
100733.77326202914992
100729.57405592591385
100727.90818026005581
100728.29224777893978
100729.93204623794009
100731.8108614593948
100732.70446843058744
100731.28686226948048
100726.45151588527369
100717.6833385372156
100705.22333378002804
100689.92422572571377
100672.9445440788113
100655.39819668761629
100638.36607371954597
100622.78756400331622
100609.86842498401529
100835.81807433415088
100839.18814935450791
100839.2217601758166
100833.25426441748277
100819.95557890601049
100799.96324139271746
100775.52334143996995
100751.37610714323819
100733.47926607682894
100725.98085861263098
100729.59251311526168
100742.47306353076419
100760.52758961677318
100779.76279892900493
100798.16152661947126
100814.92740716396656
100830.67754557784065
100845.93473635525152
100860.28106963670871
100873.40536535831052
100883.15919599190238
100887.71170227568655
100885.74363426370837
100877.68711921718204
100866.0423609638674
100853.53853281016927
100842.55281224510691
100724.27937344420934
100722.81749796139775
100725.17775562890165
100730.29990307570552
100736.43134309713787
100741.55062698115944
100743.76891685086593
100741.58528058315278
100734.03284072158567
100720.84111892138026
100702.59108884721354
100680.67436387212365
100657.02856844299822
100633.62557446229039
100612.10225109131716
100593.39236343058292
100578.1136773670878
100860.95306085686025
100857.46074518693786
100855.9155736706598
100854.03394060127903
100848.51693761038769
100837.50114227150334
100821.01936253238819
100801.04715270268207
100780.50495128426701
100762.66208806379291
100750.31705147230241
100744.61781785587664
100745.16896499079303
100751.46803182216536
100763.25984029915708
100780.150748909713
100801.32827494120284
100824.56919087776623
100847.34741143457359
100867.64941162061587
100882.8299012263742
100891.23196382973401
100891.65379284427036
100884.66240434977226
100871.98519186250633
100856.65197994543996
100841.72945220286783
100719.8441897866287
100726.05626293591922
100735.87919272555155
100746.77908272080822
100755.62406008025573
100759.4467128742981
100756.17741989628121
100745.05130643420853
100726.59083175615524
100702.34265001800668
100674.51571222647908
100645.57688390019757
100617.79857423213252
100592.99241601821268
100572.19345628721931
100555.70934289299475
100846.14742378093069
100845.34963033010717
100847.51733433554182
100850.06938252458349
100848.99456449820718
100841.1887296364439
100827.64843499516428
100811.89363222845714
100797.58658240825753
100786.09768532979069
100776.02356688897999
100766.28538604523055
100757.53624511678936
100752.85876252855815
100755.76782766122778
100767.64807241183007
100786.45299868003349
100809.03001384808158
100831.3694022957352
100851.4511762761249
100867.59560856572352
100877.87924090684101
100880.68058388284408
100875.8122201962251
100864.28263427100319
100848.73615349641477
100832.54658959317021
100818.50352945714258
100729.96238138629997
100741.7817206102045
100754.25296885287389
100763.98095993926108
100767.79652616566455
100763.4665537559631
100750.25323618749098
100729.04677062413248
100702.00652907122276
100671.91994712725864
100641.60247887416335
100613.35369011493458
100588.69392297117156
100568.26470148081717
100552.00803906118381
100817.46498794009676
100825.81545642096899
100833.77414843505539
100836.53538955803378
100831.3516772127623
100820.75055574905127
100809.98701369817718
100802.67911128369451
100798.63160927030549
100793.80714268110751
100784.80054788150301
100772.4101532560162
100761.90787534807168
100758.40221732518694
100763.42026221024571
100775.98133826923731
100791.85186409763992
100808.5221848605579
100824.99182360158011
100840.66191411604814
100853.59475149642094
100861.15518941236951
100861.50799665175145
100854.43349868104269
100841.72634647302039
100826.77380701372749
100812.72136907523964
100744.70169920942863
100756.4523250474449
100765.02440461475635
100767.47252530450351
100761.8525194946269
100747.64770275578485
100725.88251024196506
100698.86675953157828
100669.54638521793822
100640.75830213526206
100614.61381547122437
100592.27940669559757
100574.01164844127197
100559.3372558348492
100796.20489249681123
100808.99548471126764
100813.78545877755096
100810.36491112525982
100802.94408217810269
100797.95008706905355
100798.72046358590887
100802.71659618683043
100804.20901589711139
100798.96710346805048
100787.75902170831978
100775.63001969193283
100767.88631262649142
100766.27575484475528
100769.49016164916975
100775.1148695138545
100782.44877003201691
100792.70258008759993
100806.2646892710618
100821.39092317248287
100834.59496403193043
100841.62734014639864
100841.09350498476124
100833.68978997982049
100822.19192637917877
100810.07306757112383
100753.37360504933167
100759.50026813465229
100759.73078435761272
100752.60882959401351
100738.05498128401814
100717.30547705257777
100692.57513467047829
100666.52077379064576
100641.62620082477224
100619.64424885026529
100601.35030765974079
100586.66887167045206
100574.8162699034292
100778.15235510648927
100783.41897066902311
100781.10873174818698
100777.48249453293101
100778.95561889604141
100787.31811782284058
100798.6764082643349
100806.51333248021547
100806.50210892700125
100799.40465550478257
100789.20913539793401
100779.61081131419633
100772.42981177377806
100766.55788942474464
100761.66910101819667
100759.09446650008613
100761.67781871595071
100771.33212463825475
100787.15468623948982
100804.49293292692164
100817.97276675392641
100824.52318681945326
100823.43263558371109
100817.03386766187032
100808.63211344809679
100748.23750995312002
100746.24717042215343
100738.06314770912286
100724.01260145465494
100705.47694226418389
100684.50172600345104
100663.31505669953185
100643.83595841228089
100627.28073538639001
100614.01704177948704
100603.72995472796902
100595.45614531652245
100749.730603097516
100748.85018097740249
100749.24164711509366
100756.35217261149955
100770.5642303351342
100787.57301103345526
100800.97872000806092
100806.48527554073371
100804.21598276312579
100797.35128479343257
100788.36072560345929
100778.30443441160605
100766.58853221930622
100753.90276755299419
100742.99679915978049
100738.2172414794768
100742.83208135589666
100756.40245610507554
100774.85498125037702
100792.62373464748089
100804.86647764926602
100810.10039855579089
100809.29358610347845
100806.08306467300281
100719.04254105137079
100722.80477010253526
100733.52270540830796
100751.18534666579217
100771.51188558498689
100788.89132491378405
100799.08542540045164
100801.25353026157245
100797.60878155707906
100790.40877761399315
100780.39582878499641
100767.24171264912002
100751.45259752307902
100735.86014534217247
100725.33084492578928
100724.20857295146561
100733.40908832555579
100750.02434279207955
100768.65049938800803
100784.15479625451553
100793.93939041279373
100798.43056479362713
100800.59952704586613
100712.81150868692202
100731.09660778364923
100752.75834339861467
100772.37324872937461
100785.58042290169396
100790.86037200916326
100789.63704517026781
100784.82222202178673
100777.43369346826512
100766.71270263368206
100752.26917628897354
100736.10017872192839
100722.50233133704751
100716.33532941668818
100720.16358250248595
100732.50509257297381
100748.97877623037493
100764.69945029763039
100776.65531313071551
100784.77376217313576
100791.68282256784732
100768.09138831259042
100775.00848186529765
100775.36381807256839
100772.85359499011247
100769.36359777956386
100763.87293679367576
100754.30543761453009
100741.05436696280958
100727.17735721846111
100717.79582817753544
100716.6609962470975
100723.7441757479537
100735.98068125692953
100749.13021999776538
100760.51567174129013
100770.13771946140332
100780.20092104483047
100757.67883484189224
100758.19873207461205
100755.37826025983668
100747.42025071613898
100736.07398488245963
100725.76269563865208
100720.94491150073009
100723.16476724177483
100730.28025008516852
100739.20056712327641
100747.76436678769824
100756.6117344651866
100767.64524945092853
100750.03092892529094
100754.13956082201912
100752.61887739419763
100745.6445708974934
100736.7104734613531
100730.34515853873745
100728.74253256118391
100731.15076665062224
100735.24278045906976
100739.86050899632392
100746.04703151076683
100755.70917480037315
100864.93875615291472
100850.49333214382932
100847.44815302010102
100845.73209223309823
100837.45878619953874
100822.71137931112025
100808.58464113895025
100802.4464629432623
100805.58071978448424
100812.50945556550869
100815.32846800748666
100809.65916624174861
100796.344606292143
100780.04189071634028
100766.20065631260513
100759.02382464025868
100759.87794168392429
100766.37461733572127
100773.06320641183993
100774.00961521464342
100906.11382716773369
100871.79834449595364
100853.26413032948039
100847.70270190645533
100844.51169860320806
100834.49830985907465
100816.79069624491967
100799.21949113495066
100791.05142125840939
100794.03076182758377
100801.90173546255392
100805.26843610277865
100798.93971470963152
100784.61997976725979
100768.79791432632192
100758.03806875963346
100755.80193198590132
100761.31486355009838
100769.92170987009013
100776.00569120624277
100775.40145891674911
100767.12117482573376
100996.44325196873979
100961.16025749014807
100916.29364088445436
100877.71909445669735
100855.55136694211978
100848.0628306728031
100843.58063022163697
100831.85431275385781
100811.67294540860166
100791.14599505160004
100780.84895452315686
100783.66816647569067
100792.54832706131856
100796.55227151981671
100789.74894107194268
100774.46207245367987
100758.98869973745605
100751.0331486727664
100753.38623063123669
100763.07939637328673
100773.50118772342103
100778.81992778624408
100776.53910198215453
100767.60692038977868
100755.39965199983271
100744.17666709255718
101023.62070475742803
101009.49904723679356
100973.01579618702817
100925.08409815447521
100882.61228511134686
100857.30734095316438
100848.31595094430668
100843.19526007237437
100829.95460768333578
100807.08905332123686
100783.8430366969842
100771.72803871239012
100774.49936368258204
100784.51184928358998
100789.28656332254468
100782.06395823981438
100765.82789485207468
100750.49787463840039
100745.02068839738786
100751.56156114229816
100765.01452036938281
100777.02160020996234
100781.53672537665989
100777.57434948325681
100767.95913245349948
100756.51848202754627
100746.31344437871303
100738.94387150469993
101024.66166910888569
101033.92563669013907
101021.09998544535483
100983.08698533145071
100932.21997002037824
100886.24161921838822
100858.53297260595718
100848.45607629134611
100843.12062650530424
100828.7221605018276
100803.57276727889257
100777.7509503341571
100763.80277746693173
100766.61277662603243
100777.8346477758314
100783.4865264831169
100775.83948114306259
100758.63583834265592
100743.26852257469727
100739.90679336882022
100750.23098569399735
100767.07760924650938
100780.47673921506794
100784.18871208110068
100778.5851055666717
100768.22481438714021
100757.50568165199365
100748.25821267104766
100740.6638463325653
100735.49946716614068
101010.40138012776151
101030.97925520314311
101042.77428342070198
101030.70270784130844
100991.45599550353654
100937.83514074713457
100888.77712778862042
100859.07369898424076
100848.5859135123319
100843.16243983359891
100828.22712844976922
100800.95389483042527
100772.20656101187342
100756.91998854007397
100759.99344263289822
100772.48696244439634
100779.0696808607463
100770.95111437985906
100752.70737928824383
100737.19406834874826
100735.60750829575409
100749.26467974182742
100769.15950307938328
100783.75029555118817
100786.73084562348959
100779.58754924009554
100768.48960221325979
100758.34368068688491
100749.95872023618722
100742.16143558164185
100735.31110339100996
100734.07841353933327
101012.68976192981063
101035.97101051146456
101049.59920248758863
101038.28016017148911
100998.00220223111683
100941.82914468730451
100890.27328895314713
100859.12397524803237
100848.50186401915562
100843.53053313712007
100828.07974653691053
100798.94442894271924
100768.2525785357866
100751.63645048826584
100754.95048625538766
100768.6066189523699
100776.04954934345733
100767.54237491216918
100748.27434035710758
100732.52499199398153
100732.25920500935172
100748.60214169351093
100771.05962987784005
100786.61924675176851
100788.93355574207089
100780.47038033325225
100768.66925569661544
100758.94772489360184
100751.33711365319323
100743.3356052745512
100735.07803462822631
100732.10940078363637
100742.63118648987438
100967.26431938249152
100984.40839793215855
100994.12978109579126
100989.04856071446557
100965.97218912177777
100938.68568723199132
101014.05225595945376
101039.40100313344738
101054.63507206336362
101043.55521890000091
101002.5419525236648
100944.35975325357867
100891.02312516477832
100858.89182901897584
100848.49672154213476
100843.91533303062897
100828.08602606618661
100797.69559774047229
100765.47290959990642
100747.90240028286644
100751.44873921708495
100766.09050001300056
100774.20254893564561
100765.37425236629497
100745.22748861498258
100729.17837953277922
100729.86964069194801
100748.16825209562376
100772.55840911985433
100788.8414585555438
100790.61761431701598
100781.14053844659065
100768.78543364025245
100759.37273591235862
100752.32082583742158
100744.11484643527365
100734.8655485623749
100730.53782676797709
100740.66677305007761
100768.73634323156148
100941.20574814164138
100969.61830233632645
100986.46619474480394
100996.06990465105628
100989.74113273373223
100965.01579314217088
100937.21713200033992
101014.56301363937382
101041.45881617785199
101057.33022629490006
101046.24339920461352
101004.8070060392638
100945.42485797892732
100891.09021097696677
100858.70701948461647
100848.50264027985395
100844.22166244253458
100828.22250459110364
100797.12762416760961
100763.95491145800042
100745.96467616019072
100749.69244762405287
100764.95385703191278
100773.43442473254981
100764.37608954405005
100743.64931085941498
100727.38274725490191
100728.6541008312488
100748.01840927237936
100773.51331327465596
100790.17300077783875
100791.57910933844687
100781.51057005795883
100768.82838300634467
100759.58026301163773
100752.80193978780881
100744.56280403192795
100734.5652119381848
100729.6024505085079
100739.56867078000505
100768.29871553034172
100807.159267217663
100826.31759352037625
100812.72852604283253
100797.27079350780696
100781.10277462239901
100765.54036537399224
100752.05514556312119
100742.166608888263
100737.12084140798834
100737.85234605568985
100744.53605763202359
100756.91815786161169
100681.67266082792776
100676.43204625922954
100671.97550203916035
100671.63123442456708
100676.9159946351574
100686.05574365671782
100695.52880743438436
100702.24381971452385
100706.80356714648951
100711.06970653643657
100717.08615278688376
100724.20410389894096
100730.36837289578398
100733.95679030290921
100735.68926393512811
100738.52771224336175
100744.22354064465617
100750.81350190158992
100753.37329194307677
100747.10976420652878
100730.8720413648407
100710.05904927416123
100693.23085918660217
100688.38675308202801
100698.8317238931777
100720.72381203528494
100745.81183774003875
100765.06272364172037
100771.91443959285971
100764.5475792834186
100745.89478273461282
100722.08564213225327
100700.30419338747743
100686.16967532926355
100682.3052171584859
100688.03542168227432
100830.46016440393578
100824.94489264283038
100821.76594060234493
100820.28039997322776
100819.74966847388714
100819.45536333409837
100818.74387392123754
100816.95582658002968
100813.38211914952262
100807.38975005979592
100798.65355908146012
100787.31782873698103
100773.99850926446379
100759.70486528173205
100745.68764474599448
100733.42636865895474
100724.54523535342014
100720.41498385842715
100722.09977558198443
100729.74820112375892
100742.95479482630617
100647.06756112987932
100642.39800170037779
100646.9803678534663
100661.40901710640173
100682.39795817027334
100703.91499948727142
100719.53398680179089
100725.66387661822955
100724.02547856263118
100720.05755141400732
100718.26037714087579
100719.5574808010133
100721.87717166800576
100722.69414150911325
100721.32066875294549
100720.46516427485039
100723.0525641249842
100728.94652241910808
100735.13930977818382
100737.06808201673266
100731.9794469159242
100721.36261143545562
100710.29687005856249
100704.64504329829651
100708.22588089351484
100719.96730474247306
100735.04404349840479
100746.97712891679839
100750.107806497821
100742.14458326761087
100724.85633317583415
100703.19388026560773
100683.87391381090856
100672.77393139521882
100672.63474312397011
100682.42278103088029
100829.29445424584264
100818.29678529386001
100809.10730785019405
100801.79827871415182
100796.23848435295804
100792.13793789637566
100789.08038504709839
100786.41569493200222
100783.25783953328209
100778.58346903086931
100771.56094438697619
100761.96244957862655
100750.19836558592215
100737.24427165481029
100724.3976751590817
100713.11522648985556
100705.0866407614667
100701.79627480947238
100704.31761535914848
100712.7421008006495
100726.45913164458761
100625.93212009842682
100640.18546196050011
100667.75042832945473
100701.39504699996905
100731.476161137296
100749.51183722190035
100752.35702651720203
100743.07816217976506
100729.92642968952714
100719.87896173680201
100715.61287942065974
100714.90264909611142
100714.0490778615349
100711.4536888867442
100708.66229924043
100708.83743202584446
100714.28788419734337
100723.91442750240094
100733.99561379518127
100740.03542947508686
100739.41984374342428
100733.39852670030086
100725.2168933115754
100718.85640092413814
100717.15617584749998
100719.67426207805693
100723.17628739720385
100723.09196168770723
100716.00925698805077
100702.13313840446062
100684.78899181530869
100669.89557058812352
100663.01059866316791
100666.81220084047527
100813.82018652210536
100799.94173717667582
100787.75030551705277
100777.75066201217123
100770.1550526352512
100764.78462246728304
100761.02709748010966
100757.78494415490422
100753.73465704050614
100747.61269061635539
100738.70096236825339
100727.18788747162034
100714.12261534412391
100701.17205133331299
100690.08413093436684
100682.50183081600699
100679.81077389480197
100682.98866749092122
100691.97343420195102
100705.92961410021235
100631.80205913147074
100653.10308398737106
100688.5709790224937
100727.84251016458438
100759.17436656582868
100774.27807352499804
100771.40515419794247
100755.45656691239856
100735.38578886320465
100719.72947943051986
100711.9707601389382
100710.18984232837101
100710.03800653472717
100708.58166722873284
100706.13300560893549
100705.68642290325079
100710.37867488813936
100721.11054199944192
100735.54290493468579
100748.97715313211665
100756.00726676885097
100753.82554536293901
100743.33562272746349
100728.3240836449404
100714.59107268138905
100705.72396725074213
100701.54836062029062
100698.79038824296731
100693.30967647572106
100683.79380584451428
100672.16780522890622
100662.65680543385679
100660.09485855100502
100666.85415221258882
100810.34043572725204
100793.85224490196561
100778.71621844179754
100765.87443186983
100755.83623569122574
100748.55620772982365
100743.44750225204916
100739.36248779631569
100734.71957824214769
100728.01989467347448
100718.37645851940033
100705.92891582343145
100691.81439393661276
100677.87147030698543
100666.191501195397
100658.58163990815228
100656.21940300230926
100659.71580163872568
100668.70766312582418
100682.20667530284845
100683.45602526787843
100718.16411352624709
100752.35789280482277
100775.90978751392686
100783.67547836250742
100775.7019130653498
100756.75345715459844
100734.71879290233483
100717.70071335135435
100709.22718556974723
100708.05836830675253
100710.19650200953765
100711.76691956064315
100711.8939293515723
100712.48621101140452
100716.31087483937154
100725.22747671513935
100738.64403711502382
100753.33953070142888
100763.64425128864241
100764.344153366299
100754.39959779533092
100736.36394034989644
100716.45112893469923
100700.62183180850116
100690.9902365802991
100686.06458113227563
100681.93155997732538
100676.42087580048246
100670.2102084201033
100665.84244329530338
100666.75207672192482
100788.95163465524092
100773.03439636797702
100758.92361588396307
100747.32030407480488
100738.21889167206245
100730.97819888615049
100724.55069570570777
100717.62594055762747
100708.88373689221044
100697.48687480505032
100683.55080111252028
100668.29908389094635
100653.6703668560076