/*--------------------------------*- C++ -*----------------------------------*\
  =========                 |
  \\      /  F ield         | OpenFOAM: The Open Source CFD Toolbox
   \\    /   O peration     | Website:  https://openfoam.org
    \\  /    A nd           | Version:  12
     \\/     M anipulation  |
\*---------------------------------------------------------------------------*/
FoamFile
{
    format      ascii;
    class       volScalarField;
    location    "0.0115";
    object      pMean;
}
// * * * * * * * * * * * * * * * * * * * * * * * * * * * * * * * * * * * * * //

dimensions      [1 -1 -2 0 0 0 0];

internalField   nonuniform List<scalar> 
106891
(
99457.271616435406031
99457.603191361238714
99457.965518096098094
99458.35904162247607
99458.783999066203251
99459.240424206916941
99459.728384458372602
99460.247827792729368
99460.798386830530944
99461.378483049280476
99461.981149753715727
99516.831637531591696
99516.587762513066991
99516.344062006013701
99516.100404704731773
99515.857391319717863
99515.615956967623788
99515.376873972447356
99515.140174320695223
99514.904805770755047
99514.669295293133473
99514.432436213974142
99514.194398853709572
99513.956739158020355
99513.72194160282379
99513.492267805049778
99513.267968859610846
99513.047196565486956
99512.826982725018752
99512.604569602990523
99512.378769411865505
99512.15028218003863
99511.920298379831365
99511.689468986980501
99511.457551337123732
99511.22412669811456
99510.989431508336565
99510.754772606436745
99510.522071660510846
99510.2931047873426
99510.068655985392979
99509.848294685929432
99509.630997253247187
99509.41547659508069
99509.20049942501646
99508.984876007394632
99508.767605969696888
99508.548164626365178
99508.32659358609817
99458.30189114822133
99458.462358104778104
99458.643198338613729
99458.844932346008136
99459.068253929173807
99459.314078810653882
99459.583565610038931
99459.878071802158956
99460.1990047981526
99460.54770524216292
99460.925315997170401
99461.332713567651808
99461.770413749356521
99462.238658610527636
99462.737449520282098
99463.266667834672262
99463.826083652063971
99464.414979104927625
99465.031649180920795
99465.669234776942176
99516.563629812109866
99516.318495523708407
99516.075202121719485
99515.833944399026223
99515.594858380733058
99515.357682685469626
99515.12173508797423
99514.885694757336751
99514.648014744845568
99514.407901811180636
99514.166372501567821
99513.925572568332427
99513.688259984715842
99513.456317403688445
99513.22976496508636
99513.006628813731368
99512.783975258542341
99512.559165248225327
99512.331211859665927
99512.100888698536437
99511.869534051351366
99511.637836133115343
99511.405475871259114
99511.171783449986833
99510.936525412587798
99510.700499462458538
99510.465715627913596
99510.234329449842335
99510.007420004767482
99509.784868514267146
99509.565899694745895
99509.349154668874689
99509.133236436246079
99508.916705120616825
99508.698214184449171
99508.477023392348201
99461.152718598023057
99461.36272798133723
99461.593074999356759
99461.844055048335576
99462.116118183548679
99462.409952760193846
99462.726488685555523
99463.066880457568914
99463.432432700414211
99463.824482141164481
99464.244217167564784
99464.692562032490969
99465.17006018088432
99465.676911211994593
99466.213064962852513
99466.778308348468272
99467.372378498694161
99467.994476115796715
99468.642967189734918
99469.311428134577
99516.555844729635282
99516.308546456551994
99516.065026152689825
99515.825141623005038
99515.587806302079116
99515.351518508410663
99515.114689666952472
99514.875823574591777
99514.633998085773783
99514.38936565554468
99514.143446588175721
99513.898698400662397
99513.657939915749012
99513.423034641367849
99513.19375693523034
99512.967758386133937
99512.7421020057227
99512.514515684888465
99512.284235649742186
99512.051991207918036
99511.819227403553668
99511.586755183132482
99511.354156734843855
99511.120556384048541
99510.885334432576201
99510.648819430934964
99510.412649840611266
99510.178899498729152
99509.949003076369991
99509.723446270596469
99509.501817599404603
99509.282789098579087
99509.064848956550122
99508.846495973775745
99508.626107677162508
99508.40250753510918
99464.282318875193596
99464.558111253529205
99464.854355804389343
99465.17133004272182
99465.509503266235697
99465.869565349566983
99466.252431723478367
99466.659174124943092
99467.090948890108848
99467.548854351422051
99468.033789726454415
99468.546375800127862
99469.086848097882466
99469.65521634304605
99470.251175154102384
99470.874495993644814
99471.524171471857699
99472.198788818976027
99472.891891680643312
99516.292114006486372
99516.048225583697786
99515.809415438459837
99515.573001247015782
99515.335995951274526
99515.096096778812353
99514.852178736909991
99514.604251947734156
99514.354013649310218
99514.10396689568006
99513.856910876405891
99513.614902115499717
99513.378608172526583
99513.147072404550272
99512.917980014812201
99512.688952915021218
99512.458265888984897
99512.225429149300908
99511.991211534579634
99511.756985737432842
99511.523499073940911
99511.290519683723687
99511.057173747496563
99510.822583571381983
99510.586519348013098
99510.349870348160039
99510.114320771637722
99509.881430705761886
99509.652031997524318
99509.426094807015033
99509.202893017456518
99508.98109460415435
99508.759204829708324
99508.535639288238599
99466.913545289076865
99467.210467018187046
99467.527486357706948
99467.8647778948216
99468.222490121086594
99468.600895138661144
99469.000458980270196
99469.421829467231873
99469.865823230196838
99470.333364904610789
99470.825381078204373
99471.342652525359881
99471.885771632485557
99472.455025337796542
99473.050574729262735
99473.67223285898217
99474.319929196994053
99474.99268646533892
99475.689317542753997
99476.403614122595172
99516.277427642562543
99516.031508600819507
99515.791947134421207
99515.554436761216493
99515.314907746142126
99515.070520644294447
99514.820476771768881
99514.565871825223439
99514.309445195525768
99514.05462006702146
99513.804355940024834
99513.560201694694115
99513.321961415524129
99513.087905777982087
99512.855754148753476
99512.623472547842539
99512.389921787093044
99512.154912597485236
99511.919239674243727
99511.683880906668492
99511.449276562503655
99511.215394083497813
99510.981659398283227
99510.747311512197484
99510.511738908404368
99510.274961965100374
99510.038017452170607
99509.80239143090148
99509.569174135103822
99509.338771570561221
99509.110860153043177
99508.884364296434796
99508.657999831717461
99470.141621469083475
99470.495603860545089
99470.869332051661331
99471.263049322747975
99471.676996357011376
99472.111466020985972
99472.566867136847577
99473.043700399473892
99473.542524175296421
99474.063954590208596
99474.608659342207829
99475.177277145601693
99475.770273460933822
99476.387987409427296
99477.030457420027233
99477.697711401022389
99478.389076117935474
99479.103418366095866
99479.835385650396347
99516.02231868718809
99515.778490961354692
99515.536508859237074
99515.291616458853241
99515.040545408250182
99514.78285714625963
99514.520794823692995
99514.258033683145186
99513.998567246264429
99513.745304489944829
99513.499082623995491
99513.258784070188995
99513.022405011986848
99512.787813932198333
99512.553254940285115
99512.317905909716501
99512.081668405386154
99511.845132354064845
99511.609128929107101
99511.374413465615362
99511.141073644714197
99510.908332923863782
99510.674809333591838
99510.439379086441477
99510.201843513583299
99509.962732361018425
99509.723569912632229
99509.48580247326754
99509.250248217911576
99509.016935767125688
99508.785338183268323
99508.554672350132023
99473.057507349192747
99473.444835714792134
99473.851217142917449
99474.276817167148693
99474.721760062049725
99475.18623809676501
99475.670544721055194
99476.175054363091476
99476.700201972780633
99477.246462126131519
99477.814317980883061
99478.40428301965585
99479.016847887949552
99479.652490876746015
99480.311443251441233
99480.993948077855748
99481.699506680350169
99482.427148712435155
99483.172019691250171
99515.768933761981316
99515.518576322705485
99515.265050865971716
99515.005924601340666
99514.741145340187359
99514.472925007939921
99514.204715047802893
99513.940370966534829
99513.682636276207631
99513.432598948784289
99513.189382133408799
99512.950755575089715
99512.714390042892774
99512.478682524539181
99512.242763057758566
99512.006454865637352
99511.770185377565213
99511.534319145794143
99511.299146209275932
99511.064670326522901
99510.830616484643542
99510.596105334887397
99510.359869435676956
99510.1212977777177
99509.880677167151589
99509.639224544429453
99509.39856278829393
99509.159843388712034
99508.923520124968491
99508.689284995620255
99476.363450035438291
99476.798330295961932
99477.251650127218454
99477.723469272023067
99478.21374207919871
99478.722454437840497
99479.249761448663776
99479.79600678216957
99480.361673323117429
99480.947336462442763
99481.553680200275267
99482.181327525468078
99482.830938772473019
99483.502835372361005
99484.197367799002677
99484.913924147462239
99485.651825982291484
99486.406519069278147
99515.494345736035029
99515.229754864441929
99514.960662850600784
99514.687750966506428
99514.413159539675689
99514.139769113840885
99513.870570986298844
99513.607762892876053
99513.352553482211079
99513.104722544318065
99512.863014267830295
99512.625460761249997
99512.390298541489756
99512.156410611438332
99511.922876613010885
99511.68909171919222
99511.454931220971048
99511.220420992540312
99510.985527023367467
99510.749834673115402
99510.512728977555525
99510.273539687419543
99510.032118642513524
99509.789348142337985
99509.54637124670262
99509.304558262927458
99509.064931394328596
99508.827820053193136
99479.23206240653235
99479.691922348880325
99480.168837828052347
99480.662845285449293
99481.17395451592165
99481.702203037915751
99482.247739897473366
99482.810884822189109
99483.392132444743766
99483.992078543335083
99484.611434114194708
99485.250927389482968
99485.911354264200781
99486.593144456346636
99487.296730860587559
99488.021484250915819
99488.766678033862263
99489.527859319234267
99515.197691979978117
99514.921887362143025
99514.644003020424861
99514.365591385489097
99514.088586745245266
99513.815170546993613
99513.547625746112317
99513.287346766432165
99513.034886541456217
99512.789409249875462
99512.549536391801666
99512.313390688912477
99512.079462812718702
99511.846584202721715
99511.613707712313044
99511.380196840429562
99511.145574330643285
99510.909351688766037
99510.671139911573846
99510.430664110419457
99510.188152358226944
99509.944629561767215
99509.701417730218964
99509.459712243231479
99509.220492747466778
99508.984058472531615
99508.750190136546735
99482.524501930442057
99483.022299238175037
99483.535576331123593
99484.064040555080283
99484.607554259273456
99485.166274130155216
99485.740686181481578
99486.331625818376779
99486.940147280271049
99487.567348471508012
99488.214126687060343
99488.88125508237863
99489.569127541821217
99490.278089245053707
99491.007518858692492
99491.756713620910887
99492.521577193867415
99515.430996962575591
99515.153569533867994
99514.874820773649844
99514.594834149727831
99514.314475402075914
99514.035185657805414
99513.758738924836507
99513.486856997318682
99513.221161353372736
99512.962597070276388
99512.711411985161249
99512.467082106333692
99512.228724910833989
99511.994915961942752
99511.764150520655676
99511.534521502122516
99511.303991061664419
99511.070774830863229
99510.834309083904373
99510.594937228190247
99510.353352817779523
99510.11051324372238
99509.867503875837428
99509.625617649304331
99509.386262916596024
99509.150118943303823
99508.91758126411878
99485.785672037178301
99486.314928737236187
99486.857484422347625
99487.41322516722721
99487.982400738779688
99488.565653282596031
99489.163981609643088
99489.778601275073015
99490.410829829343129
99491.061813381835236
99491.732459991471842
99492.423083596746437
99493.133809079270577
99493.863782126223668
99494.612295253464254
99495.375537602754775
99515.39732687403739
99515.122631847654702
99514.845947321489803
99514.56701561860973
99514.286626323970268
99514.006914491968928
99513.730071967685944
99513.457728036533808
99513.190707279718481
99512.929370477286284
99512.673994306343957
99512.424889001180418
99512.182227284196415
99511.945504218456335
99511.713195383053971
99511.482727695591166
99511.251542675934616
99511.01814727668534
99510.782085053520859
99510.543557434823015
99510.303265932467184
99510.062078153496259
99509.821169099406688
99509.581972624175251
99509.345977625765954
99509.114176382805454
99508.886923231184483
99508.663996559887892
99488.605304445241927
99489.157555276353378
99489.721574008988682
99490.297668152343249
99490.886604107159656
99491.489546663869987
99492.107872802444035
99492.742973067346611
99493.396031043972471
99494.067902221082477
99494.758938021957874
99495.469166955983383
99496.197841277127736
99496.944098473904887
99497.70476209789922
99515.091069144051289
99514.818928577238694
99514.543303824277245
99514.265288080307073
99513.987198259448633
99513.711702108426834
99513.440457847886137
99513.173824368917849
99512.911708128362079
99512.654164760693675
99512.401850244481466
99512.155721699615242
99511.915921281237388
99511.681153865574743
99511.449014904283104
99511.217158026920515
99510.984381939517334
99510.75034371066431
99510.514979825326009
99510.278627602703637
99510.041759500483749
99509.804952688500634
99509.569347380267573
99509.336382616136689
99509.107574496447342
99508.883534001390217
99508.664045873898431
99490.964819838292897
99491.534793375481968
99492.116094513185089
99492.70954972509935
99493.316353061367408
99493.937848594490788
99494.575358104208135
99495.229949622982531
99495.902341089429683
99496.592760943909525
99497.301101540680975
99498.026603892009007
99498.768408271920634
99499.523602795685292
99514.806429983727867
99514.534452885738574
99514.259818090387853
99513.985560039625852
99513.714151760315872
99513.446513181974296
99513.182239515372203
99512.92078299538116
99512.66227143179276
99512.407667028266587
99512.15805719429045
99511.913907535956241
99511.674537436600076
99511.438469174667262
99511.204151676982292
99510.97093649499584
99510.738640595765901
99510.507018368996796
99510.275646200665506
99510.044017986758263
99509.812265780303278
99509.581100039140438
99509.351714362521307
99509.125467731748358
99508.903486797949881
99508.686170060973382
99493.155799111409578
99493.741795450390782
99494.339405027683824
99494.949785972872633
99495.574221529328497
99496.213928133569425
99496.869809701427585
99497.542426389292814
99498.231854337165714
99498.937960512907011
99499.65995499928249
99500.397201020721695
99501.146991532150423
99514.513349891232792
99514.243777469833731
99513.974744353385177
99513.708524216286605
99513.445718787639635
99513.185452550111222
99512.926637893018778
99512.669126507535111
99512.413997910305625
99512.162668611301342
99511.915782117008348
99511.672875039381324
99511.433151012010057
99511.196231077527045
99510.9621720368159
99510.731119216114166
99510.502765205776086
99510.276084694924066
99510.050019370988593
99509.823691509402124
99509.59715850930661
99509.371551964926766
99509.148321401196881
99508.928807521093404
99508.713564627891174
99495.194497509713983
99495.796308737088111
99496.410415714461124
99497.037900068913586
99497.679783557454357
99498.336802412464749
99499.009375822439324
99499.697495514163165
99500.400958525788155
99501.119043151527876
99501.851253688699217
99502.595181561424397
99514.238127813543542
99513.97582033877552
99513.716263801703462
99513.459429542519501
99513.204128051191219
99512.949055965727894
99512.693944597063819
99512.439693914158852
99512.187681439390872
99511.938803142969846
99511.693268367846031
99511.450974887207849
99511.212048950619646
99510.977102126504178
99510.746633651229786
99510.520384887873661
99510.297176572508761
99510.075346797471866
99509.853649086770019
99509.631666644971119
99509.409924675928778
99509.189667619095417
99508.972151674504858
99508.758221575786592
99513.963028819911415
99513.710243727589841
99513.460148120473605
99513.211401627777377
99512.962312735515297
99512.712130523534142
99512.461150481991353
99512.210404942408786
99511.961121079002623
99511.714051881877822
99511.469727104558842
99511.228784559920314
99510.992261871928349
99510.761252025084104
99510.53592687966011
99510.315171662747161
99510.097016024417826
99509.879659458383685
99509.662154289297177
99509.444438066217117
99509.227363935453468
99509.01194556640985
99508.798998028942151
99513.470163883728674
99513.227392331216834
99512.983746749028796
99512.738081972915097
99512.490631767228479
99512.242502897468512
99511.994964376688586
99511.748899322250509
99511.505023100864491
99511.264107008551946
99511.027294890067424
99510.795807305170456
99510.570166401841561
99510.349682642408879
99510.132571889917017
99509.917117972232518
99509.702306454957579
99509.487745246253326
99509.273657783895032
99509.060683547257213
99508.84901723213261
99512.520074133208254
99512.275805305485846
99512.031174164192635
99511.787357857450843
99511.54503802000545
99511.304959208879154
99511.068173320076312
99510.836047320990474
99510.609468295646366
99510.388265575020341
99510.17131226795027
99509.957101022475399
99509.744202761678025
99509.531707814094261
99509.319535284870653
99509.108093179092975
99508.897373096639058
99511.592493285701494
99511.355621191585669
99511.120383340632543
99510.887961524626007
99510.659829543161322
99510.43670775317878
99510.218134810958873
99510.002821371977916
99509.789553817667183
99509.577570063775056
99509.366577516280813
99509.156488654582063
99508.946899304326507
99511.394228693374316
99511.160911549464799
99510.929130447213538
99510.700509535905439
99510.476077317231102
99510.256011400691932
99510.039468539864174
99509.825384982934338
99509.613129605088034
99509.402361101776478
99509.192700791652896
99508.98340778957936
99531.288339710445143
99531.070959953634883
99530.85192579656723
99530.629197361529805
99530.404440064376104
99530.181135326070944
99529.96179159602616
99529.746480595727917
99529.533213147020433
99529.319673242847784
99529.104460039103287
99528.887589598685736
99528.669464024700574
99528.449636502366047
99528.226842659743852
99527.999328998470446
99527.765069788787514
99527.52258851127408
99527.272441183275077
99527.017577707636519
99531.488233991098241
99531.266931306949118
99531.049934244598262
99530.831915423885221
99530.610301151260501
99530.386507347720908
99530.164141965447925
99529.946202077408088
99529.73279187179287
99529.521565245115198
99529.309764768942841
99529.096058614130015
99528.8807074221113
99528.664309696439886
99528.446430671436246
99528.225358925730688
99527.998616172233596
99527.763880312239053
99527.520094959778362
99527.268446029294864
99527.012281855699257
99526.755905136262299
99531.94344552437542
99531.702062594587915
99531.470446584164165
99531.24827254320553
99531.031132885706029
99530.813522407304845
99530.592511743670912
99530.369391529457062
99530.147968262448558
99529.931313603694434
99529.719598477255204
99529.510258090827847
99529.300239497271832
99529.088050854858011
99528.874041583927465
99528.659066019186866
99528.442695488687605
99528.222756775401649
99527.996254307945492
99527.76086860554642
99527.515989809209714
99527.263440514667309
99527.007006470128545
99526.750680265147821
99526.49752026645001
99526.249131561649847
99532.177479128891719
99531.928359341065516
99531.684518623937038
99531.451014170685085
99531.228088568808744
99531.011259103950579
99530.794367738635628
99530.573951148078777
99530.351473810675088
99530.130994681923767
99529.915805700642522
99529.705959572107531
99529.498480791502516
99529.289824098319514
99529.078521471659769
99528.865558106219396
99528.652168215849088
99528.437614094946184
99528.219064581324346
99527.992996392087662
99527.756872452053358
99527.510566931698122
99527.256669274560409
99526.999426769616548
99526.742862963845255
99526.489703225233825
99526.24120865718578
99525.997125932917697
99532.41337860331987
99532.165507336118026
99531.915916290643509
99531.671511693217326
99531.437393344414886
99531.213876598558272
99530.996498376189265
99530.779127416404663
99530.558469353156397
99530.336071356738103
99530.116375212761341
99529.902616808671155
99529.694582187235937
99529.488858359327423
99529.281468295273953
99529.071004018915119
99528.858710239321226
99528.646098386918311
99528.432612543649157
99528.2152385320951
99527.989919972547796
99527.753782143903663
99527.506847990953247
99527.252280442364281
99526.994696996596758
99526.738043732941151
99526.484687528121867
99526.235702946039964
99525.990862092614407
99525.749007683887612
99532.648242111419677
99532.406751036221976
99532.157921825215453
99531.906515989059699
99531.660095315208309
99531.424408020364353
99531.20009272909374
99530.982896928791888
99530.766369264019886
99530.546626604176708
99530.325060434843181
99530.106209759585909
99529.893658597691683
99529.687150657933671
99529.482811693611438
99529.276354208777775
99529.066288955669734
99528.854394866648363
99528.642749916936737
99528.430570971744601
99528.214247188618174
99527.989208402577788
99527.752424091770081
99527.5042265040247
99527.248466892488068
99526.990284942803555
99526.733672708374797
99526.480654131883057
99526.231860514250002
99525.987087321205763
99525.745387119037332
99525.505182513559703
99532.650516708774376
99532.408732486830559
99532.159226431918796
99531.906975525227608
99531.659785879819538
99531.423642479610862
99531.199305382673629
99530.982318318259786
99530.765893421776127
99530.546017814587685
99530.324231601451174
99530.105481764941942
99529.89346861881495
99529.687836270517437
99529.484452405595221
99529.278645322803641
99529.06888788107608
99528.857140980457189
99528.645768811460584
99528.434128109889571
99528.218460163669079
99527.993819664028706
99527.756903838191647
99527.5082181502803
99527.251984060436371
99526.99361742156907
99526.737000847613672
99526.483888016504352
99526.234762900989153
99525.989471156703075
99525.747395536134718
99525.507271056398167
99525.26577420734975
99545.629114177805604
99545.320518884836929
99545.010648096344084
99544.70088893819775
99544.395347321420559
99544.097300779161742
99532.652063233996159
99532.410195826654672
99532.160048044621362
99531.906727470210171
99531.658424241861212
99531.421406696783379
99531.196695565944538
99530.979786797746783
99530.76362152879301
99530.543873599322978
99530.322158084381954
99530.103612861857982
99529.892092809808673
99529.687213783094194
99529.484559364544111
99529.279133938922314
99529.069409226285643
99528.857721614345792
99528.646712016387028
99528.435684281153954
99528.220605941693066
99527.996209358403576
99527.759037416995852
99527.509697779474664
99527.252836661820766
99526.994135579661815
99526.737451529203099
99526.484325251105474
99526.235086061933544
99525.989595625374932
99525.747445914254058
99525.507598601834616
99525.266628278419375
99525.019259552063886
99545.933565574727254
99545.626938642628375
99545.317935438783024
99545.007643117205589
99544.697599233913934
99544.392226695315912
99544.094683229035581
99532.658113346857135
99532.41618138460035
99532.16563759726705
99531.911857572282315
99531.663155834670761
99531.425900267553516
99531.201239741916652
99530.984550583554665
99530.768511835951358
99530.548714788834332
99530.326903918932658
99530.108317894526408
99529.896937350698863
99529.692391888413113
99529.490062421420589
99529.284762684066663
99529.075034721696284
99528.863350798026659
99528.652425458931248
99528.441609652742045
99528.22678745489975
99528.002507283294108
99527.765203609043965
99527.515564380722935
99527.258477299939841
99526.999714039731771
99526.743035716019222
99526.489908079733141
99526.240597108058864
99525.994923132151598
99525.752673586917808
99525.512977934384253
99525.272247189146583
99525.025053169709281
99524.767310502909822
99452.776767064264277
99453.095389132227865
99453.445267263494316
99453.827712271231576
99454.243818291681237
99454.694325656586443
99455.179646725504426
99455.69974052143516
99456.253698107684613
99456.839085933897877
99457.447444299570634
99514.662276208968251
99514.417043220892083
99514.173243670826196
99513.931399538050755
99513.690960103136604
99513.45109061342373
99513.211160526945605
99512.971041061813594
99512.730846956808819
99512.490772823322914
99512.250712010049028
99512.010324634582503
99511.770002879828098
99511.530584244144848
99511.292666980240028
99511.05640302633401
99510.821337679124554
99510.586783180435305
99510.352716553796199
99510.120555389163201
99509.892149963765405
99509.668976963061141
99509.451082315295935
99509.236695630082977
99509.022580132688745
99508.805297684593825
99508.582830187689979
99508.354927150532603
99508.123216427178704
99507.890462808441953
99507.659565537906019
99507.432511764010997
99507.209739912243094
99506.990214558216394
99506.771927116322331
99506.552698242128827
99453.749089227436343
99453.882904947196948
99454.036421502023586
99454.210002691572299
99454.404145806693123
99454.61952809432114
99454.857048910023877
99455.117816852085525
99455.403100171053666
99455.714245254726848
99456.05263562744949
99456.419640486186836
99456.816607555476367
99457.244716725312173
99457.704889725180692
99458.197740958697977
99458.723485996422824
99459.282012544645113
99459.872262460034108
99460.492012044313014
99461.133398668011068
99514.654028462915448
99514.411528967742925
99514.169012717451551
99513.925657642103033
99513.680497587309219
99513.433035274239955
99513.183953319472494
99512.93457331994432
99512.686485296770115
99512.440748442750191
99512.197189041689853
99511.955011260622996
99511.713941071633599
99511.474472856760258
99511.237267303309636
99511.002550946912379
99510.769845651069772
99510.538036825280869
99510.306432985671563
99510.075471586664207
99509.846246917630197
99509.619919185177423
99509.397011710039806
99509.176917605378549
99508.957564216878382
99508.736356252062251
99508.511610047280556
99508.282937773430604
99508.051429458966595
99507.819182003615424
99507.588663193804678
99507.361667144330568
99507.138658646174008
99506.918730828794651
99506.699882303830236
99506.479854491175502
99456.555233660692465
99456.735247293516295
99456.935472734941868
99457.156327013071859
99457.398263321447303
99457.661786891563679
99457.947505197880673
99458.256188644925714
99458.58876904360659
99458.946304954137304
99459.329953888824093
99459.740921462827828
99460.180391764180968
99460.64945757073292
99461.148942269035615
99461.679372733240598
99462.240753241887433
99462.832893636383233
99463.454503183820634
99464.103510387794813
99464.772298868541839
99514.422572696144925
99514.179586439786362
99513.932525457799784
99513.680580908971024
99513.42422314840951
99513.165437530042254
99512.906950514603523
99512.651273776151356
99512.399928348590038
99512.152842804076499
99511.908858820374007
99511.666966876247898
99511.427263434379711
99511.190246272439254
99510.956272124371026
99510.72488341848657
99510.494870932991034
99510.264912363738404
99510.034358405944658
99509.803448573264177
99509.572890522089438
99509.343702326455968
99509.116485649778042
99508.890871102892561
99508.665610548763652
99508.439140968155698
99508.210661484612501
99507.980284356119228
99507.749470255628694
99507.520199566264637
99507.29397425345087
99507.07122880325187
99506.851058370346436
99506.631590257675271
99459.614143527986016
99459.857827451312914
99460.122466839602566
99460.408477092933026
99460.716221033129841
99461.046066264170804
99461.398456374081434
99461.773986445710761
99462.173452221381012
99462.597842868388398
99463.048228200190351
99463.525655952864327
99464.031073336547706
99464.565203896258026
99465.128540392659488
99465.720991173744551
99466.342257413271
99466.990953340718988
99467.665137707299436
99468.357868593215244
99514.425442049556295
99514.179186449458939
99513.926616466414998
99513.667073886710568
99513.402095608573291
99513.134760227869265
99512.868940475396812
99512.607768608824699
99512.352716673442046
99512.10350431081315
99511.85856374791183
99511.616370728472248
99511.376491941686254
99511.139319223366329
99510.905176158325048
99510.673644686467014
99510.443551116884919
99510.21332791011082
99509.981681547928019
99509.748242591522285
99509.513471704238327
99509.278640905948123
99509.04528541835316
99508.814220807471429
99508.5851789219887
99508.356964386824984
99508.128499105136143
99507.899184588735807
99507.669590485369554
99507.441196343817865
99507.215268944244599
99506.992202173962141
99506.771307048911694
99506.550994386445382
99462.507887318526627
99462.791612830827944
99463.096278886878281
99463.422268184789573
99463.769823110938887
99464.139114736201009
99464.530402465694351
99464.94414156084531
99465.380984357529087
99465.841731595515739
99466.327252245217096
99466.8384238427534
99467.376050225560903
99467.940690111077856
99468.532682646342437
99469.151837634533877
99469.79776808306633
99470.469038430805085
99471.163786252887803
99471.8756180775963
99514.179481626837514
99513.919448945074691
99513.652228049293626
99513.380280884812237
99513.107129642390646
99512.836625469004503
99512.572027820002404
99512.314664314762922
99512.064179038847215
99511.818814822050626
99511.576487300990266
99511.336058240485727
99511.097402848361526
99510.861015848786337
99510.626962321111932
99510.394666892461828
99510.162974647799274
99509.930388033724739
99509.695792575119413
99509.458732818937278
99509.220118103345158
99508.981714051304152
99508.745203541824594
99508.51137066425872
99508.279877277862397
99508.049653042588034
99507.819895969369099
99507.59048881092167
99507.362286773641245
99507.136145912212669
99506.912455761063029
99506.690566131990636
99465.726120699357125
99466.066642977893935
99466.428168371479842
99466.810949065344175
99467.215124930720776
99467.640799962580786
99468.088188729583635
99468.557724546510144
99469.050074560524081
99469.566053078859113
99470.106441159339738
99470.671884648545529