/*--------------------------------*- C++ -*----------------------------------*\
  =========                 |
  \\      /  F ield         | OpenFOAM: The Open Source CFD Toolbox
   \\    /   O peration     | Website:  https://openfoam.org
    \\  /    A nd           | Version:  12
     \\/     M anipulation  |
\*---------------------------------------------------------------------------*/
FoamFile
{
    format      ascii;
    class       volScalarField;
    location    "0.0115";
    object      rho;
}
// * * * * * * * * * * * * * * * * * * * * * * * * * * * * * * * * * * * * * //

dimensions      [1 -3 0 0 0 0 0];

internalField   nonuniform List<scalar> 
106891
(
1.1662998471336176731
1.1661602776291570827
1.1660328094840186619
1.1659332413618839208
1.1658782704437296029
1.1658712363188994399
1.1659141431817228174
1.1659914061422145259
1.1660868579754111174
1.1661830373264929772
1.1662570008859520776
1.162171272687182233
1.1622079897157497896
1.1622683885110456359
1.1623382787302465324
1.1624107257208728949
1.1624944051950865109
1.1626072881041535911
1.1627642719172537333
1.1629626735269082971
1.1631661230748411295
1.1633059759057360338
1.1633025534818586255
1.1631006880620251565
1.1627086715331338418
1.1622092516137243479
1.1617345939129708476
1.1614070737491901664
1.161289824229412071
1.1613617569969367782
1.161548325271107629
1.1617685448114611901
1.1619735553414733964
1.1621445113384503145
1.162277981738945698
1.1623575697943779872
1.1623597783645061021
1.1622741218487016024
1.1621217328896482623
1.1619539005957915112
1.1618246015864206466
1.1617623386317810219
1.1617602798562343125
1.1617829577491369797
1.1617878208418019881
1.1617375679063621785
1.1616082627732677857
1.1613924087860005852
1.1611039000702965129
1.1666034592775607059
1.1665734653166366375
1.1665612043026285516
1.1665631381863890148
1.1665689276470048164
1.1665638472442878548
1.1665326209123445533
1.1664649772472159839
1.1663585943687782009
1.1662204554864641359
1.1660654073991170154
1.1659135895147316742
1.1657844605342528865
1.1656985003786473065
1.165662816362950327
1.1656833626016935845
1.1657464792029179623
1.1658367636008162282
1.1659358549746270395
1.1660199933990731402
1.1622514386667057718
1.1621959555439917988
1.1621383101206244071
1.162103105995052621
1.1621199086416749147
1.1622125151855702274
1.1623894145197446459
1.1626345624758540609
1.162898776857804517
1.1630993486813181459
1.163147881643671111
1.1629854440161186968
1.1626212584205797285
1.1621428493356231737
1.1616855861057735488
1.1613769552897166282
1.161279909686449896
1.1613720277726744534
1.1615720471016983684
1.1617969260125209363
1.1619957761077270852
1.1621525828795959967
1.1622705539844260247
1.162337658011848962
1.1623350775072798235
1.1622482894546164456
1.1620899707186505001
1.1619079167207309045
1.1617580222965404602
1.1616766153164594932
1.1616676595565122998
1.1617020609753043736
1.1617384703449773475
1.161737640768867541
1.1616714388606386166
1.1615258317613070815
1.1664317890675617306
1.1663830779178034902
1.1663579248797957266
1.1663542453940602961
1.1663623612169449206
1.1663671624782090408
1.166350930025099375
1.1662997280873188544
1.1662077327895870038
1.166078857835979532
1.1659264105702082936
1.1657696200833893574
1.165627812295240151
1.1655227635456451019
1.1654646999834168408
1.1654631806555826312
1.1655085701322309699
1.1655864239424356121
1.1656790464165336374
1.1657633800621813869
1.1623138761690297027
1.1621130116726627879
1.1619272748395843564
1.161818701535209275
1.1618302797296105044
1.1619718512301482338
1.1622167198784101316
1.1625106463860483963
1.1627802962990176905
1.162940816964327162
1.1629228991226276957
1.1627022815550205337
1.1623171945868833177
1.1618707082941486242
1.1614885932857188511
1.1612775670542010431
1.1612733225737763565
1.161437271111424252
1.1616808332006991478
1.1619177949764574187
1.1620966963553926998
1.1622091662376086152
1.1622649122280925837
1.1622749720307470334
1.1622397121184333546
1.1621562693491456209
1.1620331501018763554
1.1619021344885382963
1.1617988047707423771
1.1617458185659494951
1.1617408648568519069
1.1617548628479565931
1.1617529802798185479
1.161709907893949234
1.1616155903560940743
1.161468369266832168
1.1661674366728906893
1.1661202502561491823
1.1660984380660026627
1.1660957889745025007
1.1660990641661306277
1.1660909621735158215
1.1660560025773929471
1.1659854211344669039
1.165879733975683008
1.1657479824770453636
1.1656070813469439074
1.1654740361197859499
1.1653684304083582468
1.1652996482063882056
1.1652785475627944756
1.1653004289937205495
1.1653554731401483124
1.1654291619204841801
1.1654986282271655451
1.1621823448401038537
1.1618530661622377131
1.1616433478559695658
1.1616170656764606139
1.1617777436180893869
1.1620731539188322579
1.1624091703586998392
1.1626844972331997763
1.1628103479136759901
1.1627392722818270521
1.16248429756467897
1.1621101241137479221
1.1617174531402556514
1.1614098632894422902
1.1612569330203035278
1.1612783228446854622
1.1614386559712548408
1.1616730627654898722
1.1619109073991595871
1.1621039676254341089
1.1622331064880424556
1.1622949906050690227
1.1623026001863090428
1.1622596999119676475
1.1621758270240245547
1.1620691633523647646
1.1619619279999495731
1.1618831085722711727
1.1618469720671225076
1.1618490204809148736
1.1618593971019868238
1.1618479011386653177
1.1617952707025531733
1.1616938700145613694
1.1660313854881116935
1.1659478967729715038
1.1658829551770402144
1.1658408031881419831
1.1658205104336707425
1.1658148251513074101
1.1658099424170824676
1.1657909562221733246
1.1657466482090308446
1.1656744911323650982
1.1655789638780913453
1.1654709374308411807
1.165362287491293225
1.1652686854515998949
1.1651974326564253914
1.1651588890717430314
1.1651508655312707852
1.1651698531768992506
1.1652070918933614685
1.1652454712399158421
1.1623720566682995692
1.1619056570201136136
1.1615875697551452106
1.1614975880940499042
1.1616357744309295796
1.1619371281980444
1.1622938766039012659
1.1625860645767627233
1.1627225996566894484
1.162666873377458554
1.1624397433377209321
1.1621169905317532134
1.1617921275738345432
1.1615452822767262653
1.1614230712270789958
1.1614369405059783436
1.1615650801561399064
1.1617663341176269753
1.1619873274617618097
1.1621815316167813936
1.1623168619206261098
1.1623827527392700532
1.1623837494743463061
1.162332594400951491
1.1622423268422943377
1.1621260202317102994
1.1620004275824675766
1.1618899049521176359
1.1618218665505626319
1.1618076329205555552
1.1618383493291819519
1.1618866892463919349
1.1619190428089980482
1.1657449973396067922
1.1656634976480959587
1.1655979161669072219
1.1655505605795115631
1.1655205148192038234
1.1655013962510900605
1.1654829033335172284
1.1654537243268032753
1.1654068448234760069
1.1653420717573088616
1.1652649397569714296
1.165182003416346701
1.1651028770576783433
1.165031376720589984
1.1649755792864775472
1.1649360295400894572
1.1649137970345129212
1.1649064177391890151
1.1649052838276332533
1.1619990822497336946
1.1616400693071364802
1.1615497563986869611
1.1617143576459476595
1.1620415001608999095
1.1624019784311581116
1.1626639765400879067
1.1627387337680963331
1.1626068123061803483
1.1623168753879531412
1.1619650967536934161
1.1616554216657484222
1.1614690672085943302
1.1614362959054822522
1.1615454793473150019
1.1617549492365863983
1.1620082468769687978
1.1622447135667290929
1.1624139341598338504
1.1624858052085977889
1.1624640280002527248
1.1623769805228940655
1.1622640718150980543
1.1621559251981101735
1.162062740778290415
1.1619836524096107677
1.161924814931249772
1.1618986237189194988
1.161917093583933358
1.1619734957085869897
1.1620419592119057839
1.1620854697510722975
1.1655882538907389456
1.165498426433291046
1.1654182103934360715
1.1653515564461176535
1.1653008037314007694
1.1652645878611338492
1.1652377752768334762
1.1652117478916650395
1.1651777998996044605
1.1651304877530841431
1.1650699060769125204
1.1649983986747638465
1.1649216271924294208
1.1648404063963777588
1.1647594338154283466
1.1646804413349194363
1.1646085625560822496
1.1645491605207851649
1.1645011506388645017
1.1618942307202650976
1.161786917172219491
1.1619304135252628285
1.1622253473177206473
1.1625354886858920711
1.1627373781720760082
1.1627541719508860396
1.1625729369770536614
1.1622557252354128732
1.1619014622635339684
1.1616095362996210483
1.161454762439575239
1.1614644415449613124
1.1616150647209917413
1.1618570965981716014
1.1621281493279016495
1.1623686742388688042
1.1625268562255608451
1.1625765681571957888
1.1625282402414813809
1.1624184657786109653
1.1622937690179664383
1.1621908724476102126
1.1621234418426322765
1.1620877416034804952
1.1620762076534614238
1.1620876790160932224
1.1621179343276404339
1.1621587859499589168
1.1621832480749210159
1.1653594763345378471
1.1652811312695339208
1.1652148059772264865
1.1651625770342943778
1.1651243355698805981
1.1650977320550552907
1.1650763504510361912
1.1650514921747707753
1.1650140223750837798
1.1649587243115493429
1.1648833005202126056
1.1647916885611651061
1.1646855858059945721
1.1645703800596320932
1.1644490209724203122
1.1643285538606189533
1.1642192622663394275
1.1641254518682906394
1.1621916178747151438
1.1622251779976768837
1.1623930519124681116
1.1625943839573431582
1.1627334835549893999
1.1627469247940522834
1.1626100083637851412
1.1623482419962207768
1.1620327071388805162
1.1617498110428416958
1.161570306914703643
1.1615352785301211735
1.1616399890309661025
1.1618483706117850307
1.1621096483015402878
1.1623663895338871566
1.1625669658607815649
1.16268069726819534
1.1627040941759017034
1.1626533104063507817
1.1625587045919192342
1.1624494847914068618
1.1623434998292265785
1.1622498549297319848
1.1621792349323225579
1.1621375755186529322
1.1621285298421528687
1.1621403437138593251
1.1652651048058193517
1.1651979201816806686
1.1651487620239420195
1.1651179645144278396
1.1651018209024752714
1.1650945830099694867
1.165088108299524583
1.1650728293965384452
1.1650377672461795786
1.1649744814415614602
1.1648779839126490732
1.16475158166441628
1.1646011346789673091
1.1644371238787603051
1.1642684937670251255
1.1641036441538814561
1.1639534913755662515
1.1638223564529679432
1.1624985218597496672
1.1625381566231127728
1.1626374513874480066
1.1627369136620655521
1.1627770030704174253
1.1627166740799430578
1.1625430741170490467
1.1622873522717012129
1.1620163046473577229
1.1618014694091129968
1.1616941959657856032
1.1617181375366516516
1.1618587383196097296
1.162077377668765843
1.1623286567647750367
1.162563409260186198
1.1627433470457353426
1.162842231899841039
1.1628469921679993604
1.162769720224207548
1.162627239918968991
1.1624492044553182968
1.1622667856213826365
1.1621116534589253089
1.162010662800345262
1.1619700181881746914
1.1619749287464899989
1.1651138336258908268
1.1650873257642229142
1.165090273539540533
1.1651142337048876474
1.1651455959981604771
1.165167937661137465
1.1651661742215397854
1.1651276842363076369
1.1650448231870926818
1.1649144911452800066
1.1647421869705847364
1.1645388228554502952
1.1643206269024855004
1.1641044986479778256
1.1639027662742822411
1.1637266113324864492
1.1635757720477095667
1.1627305706320798517
1.1626075163438553961
1.1626081084667985177
1.1626950437500773727
1.16280118503132468
1.1628613805388832159
1.1628302220005100054
1.1626953081433695214
1.1624766102950725433
1.162221744589219119
1.1619917028942539083
1.1618381029348820999
1.1617903328310954514
1.1618571569007605238
1.1620260342340749116
1.1622637981125816253
1.1625231359142598198
1.1627462826840258003
1.1628852862320573358
1.1629179022700155688
1.1628408149677460504
1.1626774615210533348
1.1624632235643250766
1.1622429612843083735
1.1620544599562843135
1.1619240242574944144
1.1618562182079061884
1.1650759495011000499
1.1651092905903766006
1.1651711487204925444
1.1652415581153390267
1.1652948179989235378
1.1653069532990820711
1.165260429004151721
1.1651491237768123455
1.1649763680330651461
1.1647551612127668985
1.1645033962410979989
1.1642411806091679249
1.1639886251332356437
1.1637591818680204092
1.1635652468370005774
1.1634041490391329177
1.1626665512297427174
1.1625004563825505066
1.1624651633009415175
1.1625376349797824638
1.1626578157070239783
1.1627551707154331062
1.1627884575788365318
1.1627473003927701889
1.162642929865437269
1.1624922693317862876
1.1623097542577882635
1.1621231054439375985
1.1619733263655842581
1.1619098356638597469
1.1619670969068460753
1.1621419429395118961
1.1623866983143433806
1.1626368909627358139
1.1628243262311133144
1.1629115497367441545
1.1628849809051875486
1.1627508738851395353
1.1625335679692836433
1.1622742526150315889
1.1620167500096238999
1.1618018627536608189
1.1616558603147459916
1.1615812604842030709
1.1651489444616454083
1.1652329299749082381
1.1653216556498080525
1.1653870716841419064
1.1654032804870602114
1.1653513231245555826
1.1652250593979349702
1.1650311980954790592
1.1647873902190106765
1.1645169703131017513
1.1642424212534503436
1.1639847790521744564
1.1637550545922135115
1.1635621078790456817
1.1634022010715372453
1.1621800032277245229
1.1622187580705529708
1.1623564196679594396
1.1625233061580737548
1.1626511118698614755
1.1627128629295708784
1.1627161650551496308
1.1626769243514338825
1.1626038330877770388
1.1624923100602910786
1.1623494225645640832
1.1622109876284483221
1.1621345805955687336
1.1621573372352247411
1.1622698841869560926
1.1624316621127204208
1.1625750360290068031
1.1626552559877767479
1.1626569385405636226
1.1625865257440213263
1.1624551345029641158
1.1622767437123502354
1.1620715680419657634
1.1618645004485594896
1.1616826589105129219
1.161549941868528224
1.1614734291004702449
1.1652610627239161634
1.1653402237096748273
1.1653921970043668033
1.1653930074099001502
1.1653261077156011893
1.165187207932810054
1.164984424447761624
1.1647365666682008012
1.164468826947062885
1.1642037130275977308
1.1639612213295416066
1.1637491572384783822
1.1635731583781110388
1.1634269492346167585
1.1618656806936435988
1.1620362157155308402
1.1622128901217780861
1.1623500167511444658
1.1624382523277743129
1.1624990489758793011
1.1625496500941499001
1.1625797739942138609
1.1625667436002511401
1.1625031758403312487
1.1624156271943892893
1.1623521547643704821
1.162347428666245408
1.1623933079476185259
1.1624499428649053279
1.1624692198251198594
1.1624278014051592223
1.1623351182614150012
1.1622121736732409225
1.1620768879238247973
1.1619379662205053805
1.161793563288416431
1.1616538025828511138
1.1615303353202690584
1.1614368376121830817
1.1613805738539308976
1.1652841399712323689
1.1653161116394914476
1.1652993493895187349
1.1652211266908301113
1.1650807341212949808
1.1648879632909923121
1.1646608227890562492
1.1644221967604333479
1.1641916335906390412
1.1639863058928161532
1.1638104390794885568
1.1636670080439219799
1.1635468985950097043
1.1617636067592918003
1.1619302648591673943
1.1620694314304780281
1.1621918776067794443
1.1623208943081846378
1.1624591270971573742
1.1625792019673717448
1.162643393194041197
1.16263559390010629
1.1625781764168177101
1.1625119078785328686
1.1624647926168782952
1.1624390711908549889
1.1624052132490536593
1.1623380728231285097
1.1622313716465313416
1.1621028311384569154
1.1619779266359122616
1.1618725636380884403
1.1617792713720405118
1.1616843863004304716
1.161585030553878406
1.1614851469657776484
1.1613995115305442152
1.1613391795129894835
1.1652305326959175868
1.1651954588634918508
1.1651083538469684253
1.1649718408087905708
1.1647971721235046427
1.1646007697821931792
1.1644023837599655202
1.1642166076542181941
1.1640566190164780558
1.1639227998053673918
1.163816304954140346
1.1637266467295617201
1.1615275559460893628
1.1616702099259859082
1.1618355043927599546
1.1620375604622528165
1.1622615471901320827
1.1624687582606341163
1.1626151443663008678
1.1626802954804298373
1.1626797252359830637
1.1626483299306866748
1.162605934992183121
1.1625512650717528818
1.1624624109410890416
1.1623262031258771998
1.1621507973887970078
1.1619666882304831024
1.1618076702857011995
1.1616882018651575326
1.1616001423045947405
1.1615241240053642002
1.1614421734379458684
1.1613548543194314178
1.1612719391961163762
1.161215342621961355
1.1613879029328224579
1.1615691042442592984
1.1617994887921150315
1.1620628774197729882
1.1623202024061753956
1.1625310456915292079
1.162670798733931754
1.1627409390483258722
1.1627618837155819786
1.1627465949955055891
1.1626891725644441511
1.1625715931480868903
1.1623838773363648347
1.1621405777306634821
1.1618821127559586515
1.1616552225793272957
1.1614874845289264726
1.161379797909386058
1.1613118722868100985
1.161259819029684337
1.1612119451188858132
1.161172000158366524
1.161156875582089576
1.1615846022726594722
1.1618754144072482859
1.1621746418641327736
1.1624365430749683537
1.1626270960354772033
1.1627350395609035161
1.1627707240270546141
1.1627545384222384151
1.1626898531476879128
1.1625642222714731577
1.1623678092579960985
1.1621120998648148959
1.1618322295586764881
1.1615750788733327781
1.1613762590812204412
1.1612436855502012989
1.1611624663267026136
1.1611097627803206311
1.1610716517576731288
1.1610501927924581356
1.1610626006506563623
1.1625510223895376694
1.1626789486923190253
1.1627170829381241468
1.1626980437170622018
1.162640991939338786
1.1625404938421608492
1.1623801412289249679
1.1621620615561596424
1.1619102999070747284
1.1616682082385081376
1.1614715372014221551
1.1613290896965995369
1.1612270629007075406
1.161142481210577504
1.1610639870804453366
1.1609997323291385563
1.1609727206201356786
1.1626539083983018497
1.162620341262304402
1.1625244007927253431
1.1623544232288705036
1.1621277932476041794
1.1618837252962395112
1.1616624066096772339
1.1614809409903830151
1.1613277603611433797
1.1611856198332930479
1.1610465835410359592
1.1609275728842307629
1.1608561087675433043
1.1625896778958946243
1.162523077740263977
1.1623763661458317298
1.1621589090912531894
1.1619052267324643246
1.1616569819302848821
1.1614365821547045776
1.1612434652037291194
1.1610654250370582297
1.1609015458406122256
1.1607706941573969761
1.1607001182000118433
1.1670497064866935943
1.1665930656792031783
1.1662236401697889665
1.165908150474356475
1.1656133324835649123
1.1653483997860700772
1.1651600796598682308
1.1650836253096934492
1.1650988033262146271
1.1651315527172405595
1.1650971623314512193
1.1649550378527797623
1.1647260931098355474
1.1644786862506402159
1.1642953102597024539
1.1642430354894623967
1.1643469011125731072
1.1645725456126476693
1.1648304976282093381
1.165006878515109312
1.1678293739863507827
1.1673315407461484217
1.1668744562211315063
1.1664823910065338364
1.1661205945167600895
1.1657563467743707886
1.165406353871083267
1.1651380779082782801
1.1650139933710164097
1.1650230690288110313
1.1650831815950442039
1.1650885964981858578
1.1649784140646026742
1.1647645861102420284
1.1645171535529050821
1.1643215783290645771
1.164243677391866072
1.164307610880322752
1.1644855834376137693
1.1647129367603803463
1.1649078988889240982
1.1649971658610036584
1.1685981699839960157
1.1683385945035087428
1.1679080156509327182
1.167418563525773445
1.1669668824244239236
1.166577355196880772
1.1662030906597489199
1.1658046308518748013
1.1654026137971511545
1.1650753109735720869
1.164903923939489383
1.164893290156588046
1.16495844864242315
1.1649806137254841154
1.1648883131214717856
1.1646905574616628343
1.1644622442353707026
1.1642888208580273179
1.1642249194350058339
1.164277602686524471
1.1644119370437762129
1.1645775573387893154
1.1647252533386280859
1.1648123468431497152
1.1648073830501419756
1.1646964508068586852
1.1682613873478437938
1.1681380206517910647
1.1677729986334850487
1.1672350708937440089
1.1666652804764119367
1.1661838133414057506
1.1658203505231563568
1.1655096370260100702
1.1651790837401128087
1.1648273971979303809
1.16452735015478126
1.1643607512879541321
1.164341018606700251
1.1643874245039131932
1.1643823631576224464
1.1642620078594545507
1.1640525160294130647
1.1638470695433020818
1.1637375125188682556
1.1637599167709786752
1.1638826718754640144
1.1640328400361366068
1.1641402355708834193
1.1641643127970715543
1.1640932235000127637
1.1639322732643035962
1.1636983339162640938
1.1634183194640541625
1.1666762428371948435
1.1665919832310114312
1.1663027086466419835
1.1657964878678568343
1.1651906970439895872
1.164646040062424337
1.1642822363614246939
1.1640959451012460324
1.1639739090845244718
1.1637882196852984418
1.1635102935704564331
1.163217036546002392
1.1630164699138809681
1.1629629782509991465
1.1630028671098637805
1.1630276174769589304
1.1629667833681323064
1.1628334773581865402
1.1626995872917500474
1.1626316322600769304
1.162637276064822256
1.1626637990641313092
1.1626442919740247461
1.1625452761645653776
1.1623839797097739179
1.1622041046750881677
1.1620395915779926366
1.1618976440414916507
1.1617720466784045019
1.1616667496143948668
1.1646586846079503008
1.1647780266499261348
1.1648353186017241789
1.164694544151751332
1.1643171290838856269
1.1638048310930477758
1.1633182062763158804
1.1629875064036063748
1.1628193775053794479
1.1626989948027022237
1.1625024992157586556
1.1622028864382745184
1.1618908810567749601
1.1616984235227771904
1.1616766497023058857
1.1617573675783523512
1.1618090360606629918
1.1617446085682254786
1.1615855929615792608
1.1614281976259517304
1.1613651690430215613
1.1614160514102531696
1.1615170528664786609
1.1615792567256457701
1.1615507341798325669
1.1614397031850351993
1.1612929346492764093
1.1611498765165488845
1.1610198332618997252
1.1608975880109682066
1.1607906639550713557
1.1607402189544040461
1.1642279460180173789
1.1643780004836192798
1.1644563223468247237
1.1643312361128013155
1.1639621270207547443
1.1634509346625951931
1.1629664351919282161
1.16264356976193306
1.1624915451575261738
1.1623940712275695475
1.1622194773417477975
1.1619376203742186604
1.1616442081676636722
1.1614660897612667512
1.1614520749738304062
1.1615237215854445907
1.1615431474370596643
1.1614265810893547037
1.1612138428908840293
1.1610232151227166675
1.160957419235858934
1.1610315985098667024
1.1611636491175159058
1.1612468381681522178
1.1612261721288743566
1.1611183050796554106
1.1609817814268339475
1.1608603776827954857
1.1607544557938576091
1.1606430296826986126
1.1605267154619842707
1.1604507665570147346
1.1604841327957395869
1.1679085868453731312
1.1679866045854954137
1.1680020536406734433
1.1678928049816839074
1.1676295011348216679
1.1673251668380735246
1.1652973393136878411
1.1654663092714874217
1.1655570166110507113
1.1654346271808595503
1.1650648521360960075
1.1645490372819680136
1.16406790849800168
1.1637594628536049868
1.1636331175175200769
1.1635610757668828352
1.1634006087557984266
1.1631193116064899584
1.1628180675004857747
1.1626331610859017562
1.1626217877051607807
1.1627057534255622606
1.1627405197746152332
1.1626371813822791168
1.1624379430778866151
1.1622687172174483994
1.1622363063896772317
1.1623522701701354265
1.1625247748207911958
1.1626359060421018743
1.162629488144159895
1.162529267014044132
1.1624033776598547973
1.1623012881034846533
1.1622199856091128822
1.1621305619324400205
1.1620322361062254135
1.1619723873346177179
1.1620298095072252309
1.1622361533552101331
1.1688013185963754825
1.1690108231819087425
1.1691232399444784207
1.1691768485203999361
1.1691013599695831982
1.1688725150524079677
1.1686141648812760074
1.1682796144904730173
1.1684868214453756341
1.1686087562401799023
1.1685115252950246667
1.1681639963699264051
1.1676643238919091061
1.1672008290413704579
1.1669156954009161087
1.1668155348945146166
1.166769564356709088
1.1666308513131811164
1.1663671738235108499
1.1660821949695612254
1.165918602211896582
1.1659337394355977491
1.1660474920851768843
1.1661094017755910812
1.1660277710014024244
1.165847250121226697
1.1656996729579836014
1.1656953449629978703
1.165842662025049048
1.1660457686915663977
1.166180365374803074
1.1661903759737162201
1.1661042722038494901
1.1659943339124305695
1.1659117751140921637
1.1658502336590406134
1.1657774160205260916
1.1656890305726745893
1.1656394258405946562
1.165710446618471563
1.1659367648426444131
1.1662508367958717148
1.1658746941165722966
1.1657448865277408867
1.1655988180805425536
1.1654447364597939618
1.1652961264237953198
1.1651615071304151083
1.1650579978269317571
1.1649925228509381281
1.1649740357199565022
1.1650075833626825084
1.1650852379691198912
1.1616259235442059072
1.1615425377918309202
1.161482978088184792
1.1615021937759570925
1.1616308162029318485
1.1618523483976173072
1.1621125131104452777
1.1623422551460065311
1.1624967358917224214
1.1625491240338847732
1.1624945266636412811
1.1623326189269138631
1.1620776745377132677
1.1617668265660681115
1.1614640190026916944
1.1612456119882628158
1.1611602065248114446
1.1612001454808327239
1.1613063059505179808
1.1613989305099383653
1.1614180893509862269
1.1613614123167252945
1.1612694680581656659
1.1612023073697086417
1.1612059450215868051
1.1612840309864351784
1.1614082479255978253
1.1615355304509231704
1.1616251960378209951
1.1616539585089598052
1.1616183648410263185
1.1615291163949608144
1.161403704801986736
1.1612556036538119741
1.1610915112415323147
1.1609139154180576625
1.1660015531227070351
1.1659531339125912552
1.1659223372818849906
1.1659036411424259505
1.1658910687952910301
1.1658786231603592842
1.1658612376968249258
1.1658333471011199656
1.1657895517950289666
1.1657244899714116482
1.1656357891722912701
1.1655244897480792066
1.1653961961804961689
1.1652578593581026656
1.1651222522995985376
1.164997922227921423
1.1649029588846742111
1.1648451378331687867
1.1648345861087407993
1.1648763668465571541
1.1649606840952611009
1.1614329246530947781
1.1613227673644814786
1.161298570419020848
1.1614006009818482745
1.161627734882154428
1.1619343345116908139
1.1622442370805183831
1.1624815006403461659
1.1626043235107175189
1.1626087902008579444
1.1625055389069447465
1.1623052577353927273
1.1620230503766970642
1.1616911407748073959
1.1613646118499285631
1.1611199744182378879
1.1610161177294557877
1.1610598143469934573
1.1612062792503645703
1.161375809432681816
1.1614933481571663165
1.1615224162315629375
1.1614736706741359828
1.1613888647318473257
1.1613188588406679891
1.1612924863138374132
1.1613133578285832481
1.1613632946843341909
1.1614116389650612771
1.1614312577557046602
1.1614065971351477113
1.1613347724093430191
1.1612260548304567109
1.161094899459451657
1.1609503915623047288
1.1607950300043832215
1.1659990952454462043
1.1659065064847833337
1.1658269526401983107
1.1657606962533499928
1.1657067095491426834
1.1656625334721353315
1.1656251786944029636
1.1655892548683883803
1.1655480590229445603
1.165493055980656445
1.1654177952197051216
1.165320204722505304
1.1652041825513277384
1.1650763747810892745
1.1649497671427442302
1.164832772238924008
1.1647441367909368015
1.1646925010351780738
1.1646882529771047654
1.1647361627239112281
1.1648241834460117961
1.1612586262645490098
1.1612786113050261871
1.161444832569003216
1.161730466105486359
1.1620687427390423707
1.1623744027468150275
1.1625807524560176631
1.1626582080024681076
1.16262255319087493
1.1624972165094267229
1.1622980705185257388
1.1620299786889101146
1.1617090035059545183
1.161380772889351265
1.1611144296050104341
1.1609762686249827102
1.1609998413212541113
1.1611619531305250597
1.1613937384946961817
1.1616067419880595768
1.1617291065613923884
1.1617350988943067058
1.1616391224492907952
1.1614865794167825719
1.1613341525070977056
1.1612212073428180847
1.1611603843431790306
1.1611378166202599438
1.1611262170707348229
1.1611052130702981255
1.1610633944386754557
1.1610045541248039669
1.160936532184600134
1.1608610302769117872
1.1658745436578665799
1.1657561215124794263
1.1656489466193449278
1.1655572958524904603
1.1654829489937901243
1.1654250419383915816
1.1653786616427532774
1.1653354737697461108
1.1652846185959058189
1.1652160598310326023
1.1651236902183046418
1.1650095466313978854
1.1648810223543490938
1.164753931009039345
1.1646391981622143952
1.1645549244010853229
1.1645089589020101162
1.1645111736342570463
1.1645647190840113794
1.1646559442412265373
1.1613540403674234014
1.1613925159550382293
1.1615868424500632727
1.1618887232326289283
1.1622166761155534598
1.1624887551017437648
1.1626504274142512863
1.1626871186833778182
1.1626182196206931163
1.1624758563510646514
1.1622774491850327294
1.16202615775439555
1.1617312169985394288
1.1614278993253241978
1.1611766285034548218
1.1610430270950098386
1.1610663669970371359
1.161237714315679348
1.161497887945528884
1.1617565091722128479
1.1619203071733554822
1.1619327311746647791
1.1617924372694812263
1.1615467534883756606
1.1612795920363889746
1.1610650920049785384
1.1609406614083348508
1.1609007345173916192
1.1609087859165456713
1.1609287155539600445
1.1609362228291575381
1.1609221079574936208
1.1608903438456177337
1.1608424677009807624
1.1658541163947058195
1.1657143991518550408
1.1655827120656221396
1.1654669487919926407
1.1653714624153121981
1.1652966354814222605
1.1652379620884101286
1.1651866836148585538
1.1651298797979519062
1.1650555403993936299
1.1649561996124029317
1.1648333449021639474
1.1646953357741445245
1.1645590413318225309
1.1644389175332037212
1.1643537029641009006
1.1643100840707774069
1.1643145780657571109
1.1643682927661345161
1.1644556745267657938
1.1616461119132619473
1.1618003459917416453
1.162025922543631129
1.1622604917232564059
1.162453577572377883
1.1625697890967681136
1.1625943115649115533
1.162534913001806558
1.1624141435839827619
1.1622428500270904905
1.1620237780224305091
1.1617647582635572956
1.1614917556391217701
1.1612568507784912786
1.161120617947341227
1.1611247508118849314
1.1612731811475025534
1.1615238983954370156
1.1617982065953631476
1.1619972968132816771
1.162039603278214539
1.1619027621451711862
1.1616219552055262465
1.1612852014784131871
1.160989590856087883
1.1607966433791405692
1.1607205736969350429
1.1607309483399057548
1.1607869591779256258
1.1608535762686600368
1.1609048019335235225
1.1609282512030349999
1.1656709710132238111
1.1655341188895302906
1.165409404496241752
1.1653025811535588918
1.1652142515757462071
1.1651394085649020571
1.1650701142668329346
1.1649955691591884488
1.1649051598468342927
1.1647917399398948213
1.1646566507660127687
1.1645091269140874779
1.1643667011032343694