/*--------------------------------*- C++ -*----------------------------------*\
  =========                 |
  \\      /  F ield         | OpenFOAM: The Open Source CFD Toolbox
   \\    /   O peration     | Website:  https://openfoam.org
    \\  /    A nd           | Version:  12
     \\/     M anipulation  |
\*---------------------------------------------------------------------------*/
FoamFile
{
    format      ascii;
    class       volScalarField;
    location    "0.0115";
    object      T;
}
// * * * * * * * * * * * * * * * * * * * * * * * * * * * * * * * * * * * * * //

dimensions      [0 0 0 1 0 0 0];

internalField   nonuniform List<scalar> 
106891
(
300.64589106332425672
300.63863645278172498
300.63303000720276259
300.63108194227822878
300.63346526792633995
300.64177760531117656
300.65450747463052039
300.67114127165507398
300.68956787212238169
300.70700193901814146
300.72281762928105309
301.314348725211687
301.3208069007521317
301.33238878348515755
301.34094723610058963
301.33774276955898586
301.31800053517554261
301.28341280063705199
301.24225036175698733
301.20688000127995565
301.18895353769158874
301.19532559825995577
301.22626463301003241
301.27630969018940732
301.33750712588317811
301.40223647192755152
301.4644540003520774
301.51847700774652594
301.55839539089225809
301.57835627808736945
301.57627608346240322
301.5567537113241201
301.53122989594407954
301.51305352581761099
301.5117318837370135
301.52748137883725121
301.55188802865234265
301.57249490486094601
301.57883908687591656
301.56663958596061548
301.53807122027092191
301.50001811760597548
301.46202103476912271
301.43418032031888742
301.42580723635711593
301.44308259990924626
301.48698338103400829
301.55215206790904858
301.62806678624184542
300.64356614926379052
300.64110842250124733
300.64123512983871933
300.64362471710728641
300.64731956743304409
300.65075525696573777
300.65240259502974141
300.65111116611365105
300.64659577574957439
300.63948701938124941
300.63126252074243894
300.623705345758367
300.61920551319673223
300.61880067639407343
300.6244936744172378
300.63515451018361091
300.65054026284263955
300.66852069214729681
300.6863580036255712
300.70323179153427873
301.29498551734496914
301.30461256182275065
301.31268926743734937
301.31260496844100771
301.30020837228687469
301.2758200939388189
301.2448192206761064
301.21635764809673219
301.20021143107635453
301.20296515506237256
301.22645325737016719
301.26769329256131869
301.32124976675743255
301.38130929364211852
301.44211716119536959
301.49738467258151786
301.53961734087835111
301.56160861681661345
301.56024756678453969
301.54048558231636434
301.51457534392739035
301.49706742234047852
301.49861416202014652
301.5197863033494059
301.55218049206331443
301.58220014408414045
301.59750743567298059
301.5921143068083552
301.56681434902793626
301.5277176722233321
301.48448900272160245
301.44818998629426687
301.42989987770823745
301.4381273079338257
301.4760554575212268
301.53967232510933627
300.62343323753577806
300.61935674401075858
300.6186901350601488
300.62123831772356652
300.62607383109138937
300.63154127928663684
300.63580320763924192
300.63727583497058049
300.63525458946151048
300.63002432831643773
300.6228467554211079
300.61542540821807279
300.61008225443481479
300.60807416680688675
300.61163102921841528
300.62015654581517765
300.63371137620544005
300.65039294661272606
300.66743723944000521
300.68427871335285317
301.29748627715451903
301.30102510477848909
301.30115549553448773
301.29393945514203779
301.27733820909020324
301.25277310791693708
301.22555385637764402
301.2040918449067135
301.19713730243415739
301.21008502305932097
301.24357386851045248
301.29367445228939459
301.35325428870538644
301.41473821502887631
301.47060389588278895
301.51472605924607251
301.54158103539413105
301.54806873930914435
301.53527544729752208
301.51067333036678519
301.48669974817562434
301.47657353111776501
301.48784099388296909
301.5190756094233393
301.55987699146913883
301.59522557294388889
301.61182972559481641
301.60378890412272312
301.57325392286827537
301.52916159731455537
301.48421326378820595
301.45140267985811988
301.4420594232141184
301.46341717372553148
301.51617272097098521
301.59272946504472657
300.59671791800582241
300.59447599451050337
300.59586895159384312
300.60029964561505267
300.60625683410393094
300.61193877771660254
300.61555809843321185
300.6161277216311305
300.61354076457575957
300.60866816635603982
300.60293551654910971
300.59849106679342867
300.59634723605222462
300.59866216837696129
300.60502343224544575
300.61595262346105528
300.63013316058578539
300.64483229384575225
300.6602433615978498
301.2849636894487162
301.27928106645549633
301.27409162240923024
301.26585629222489615
301.25243418543567486
301.23558762847204662
301.22058952903847739
301.2149409992534288
301.22447774492172812
301.25174746919981317
301.29581453597694463
301.35215828571620023
301.41425056116605674
301.47439369980241963
301.52420003152997197
301.55630599663749081
301.5657763094686743
301.55297415386121429
301.52441093232675939
301.4922955792568473
301.4707316867653617
301.46976015230814028
301.49225371635861848
301.53060784082344981
301.57091408903511365
301.59828618836320402
301.60219688107326874
301.5812673785076754
301.54268246494882533
301.50004164512432681
301.46826197617571097
301.46071088414385031
301.48550388225481811
301.54268576918701683
300.5807805362325098
300.57254262006733825
300.56704353777894312
300.56474167405036724
300.56564749068195397
300.56892046911326588
300.57319268150740754
300.57678244375318855
300.57853236000948982
300.57805668261960363
300.57583307650878623
300.57265622316538156
300.57019973716944605
300.56907095262465646
300.57117062017550779
300.57606759921105777
300.58451128333246061
300.59567352435357179
300.60761247389490336
300.62074609473387454
301.27139956495102524
301.26517346999747815
301.26851582267238427
301.27711158758125976
301.28381674150654135
301.28309325407980168
301.27350785571906044
301.25826678047496898
301.2447166807260146
301.24194662472564232
301.2574075561339555
301.295097331489103
301.35260375981323477
301.42077429136503497
301.48592730640211812
301.53445692511644438
301.55699881344065716
301.55182918641310152
301.52487167982758365
301.4884402291776837
301.45728117518171985
301.44436686832511896
301.45643425176501751
301.49163653953576159
301.53986279668606585
301.58625986919793149
301.61664401860878115
301.62295219008268532
301.60600889341213815
301.57403624843487933
301.53998778900046318
301.51760437779756785
301.51791290413245861
300.54954502000845196
300.5424897799939572
300.53805421315740887
300.5365547452963142
300.53778663054470144
300.54109900983883108
300.54526814419540415
300.54905903084494412
300.55163321674450572
300.55290722951644966
300.55319682649064816
300.55348252964552103
300.55396272676784974
300.555876405214633
300.55893529545488718
300.5638702833446132
300.57047501872261819
300.57763581975916622
300.58609958728033007
301.29269862142831471
301.29778941222542699
301.30688543902550691
301.3134589262297709
301.31122673273102919
301.29810999453508202
301.27701440571303237
301.25615719698504336
301.24667352572708978
301.25821414294489387
301.29480978537520741
301.35194133446628939
301.41771923020979784
301.47603875659785899
301.51332108834083101
301.5232883719735355
301.50868680688779477
301.47938842462372122
301.44893833477703993
301.43030241681196912
301.43314175121366816
301.46086897354359735
301.50962351523355665
301.56869448612252427
301.62314796455245869
301.65895817951201252
301.6683709866097729
301.6519448440577662
301.61813591031227588
301.57978261325871472
301.55085461189173657
301.54302142048692303
300.52821861423331029
300.52112125979016355
300.51615477703950319
300.5137858654302363
300.51412631756699056
300.51702096518312146
300.52174597958037339
300.52730981989395787
300.53265091084915639
300.53709665054589095
300.54037670804956406
300.54293617656890092
300.54464666625847258
300.54619584358056272
300.54720115870139807
300.5482594165420096
300.54976338515399448
300.55136808959468908
300.55469652281641402
301.34437446283391182
301.35742618235548207
301.36374718485262747
301.35767415092169585
301.33834899327115409
301.31087106215181848
301.2845141615165403
301.26943517443714882
301.27448012213307038
301.30250764576146594
301.34882437599122795
301.40305731500808406
301.45201904448941832
301.48387668416194174
301.49323367747081193
301.48238817756180197
301.46035512337880391
301.43904521315783995
301.43022530021949024
301.44258937442339175
301.4785599262771143
301.53308327014593715
301.59450801250596896
301.64774338515002228
301.67957727836562754
301.68362698514948761
301.66284576602998868
301.62766444146501499
301.59291687991094477
301.57218496049597434
300.51106610401899388
300.50697863736479576
300.50524249633593854
300.50592112636121556
300.50899972624671364
300.51401832204635411
300.52024712865062384
300.52657286235734091
300.53199789987320401
300.53563981693645246
300.53751559177464969
300.53733103994755993
300.53581152399368648
300.5327765067142991
300.52886432156395813
300.52474439040423704
300.52056964922599036
300.51877341950597611
301.41465462798623776
301.43254147972828605
301.43075750190718054
301.40856818479244339
301.37232617702608195
301.33320659743174019
301.30268622900797482
301.28995539286637495
301.29993294753683131
301.33110105782736809
301.37541642772805517
301.42127524548584461
301.45640471591804044
301.47281436225028983
301.46984259427466668
301.45367746933050057
301.43509104569920964
301.42632098654308948
301.43723861295529787
301.47155815592651606
301.52564657528256475
301.58887326134072282
301.646534288168084
301.6850897071944928
301.69750971992306177
301.68492356857581171
301.6565704769320746
301.62562893286354893
300.49918392805011536
300.49605383375609335
300.49584189235889653
300.49842968664790988
300.50342790471597709
300.51003453924943187
300.5173588290800808
300.52420950624195939
300.52942002199193894
300.53181040695125148
300.53107563203269592
300.52701936209524547
300.52059229924793726
300.51245992692008713
300.50358246969051379
300.49502171147486251
300.48682053510583501
300.48153677601914069
301.49776395655072747
301.49800494294095188
301.47317643163876255
301.43053483378207602
301.38146191495440007
301.33835091886913915
301.31098809741121158
301.30522759785560538
301.32154343095970717
301.35391574238286694
301.39151515089616851
301.42303035756327745
301.43998450747704965
301.44044180411214029
301.43007194432419737
301.41916887678206649
301.41941145353024467
301.43932067922764872
301.48104145881285376
301.54061640594619575
301.60729023507161628
301.66787552680801809
301.71010290650417573
301.72688650327398818
301.718558676004875
301.69174145508389984
301.65754003745689715
300.48888441746674971
300.49079089615059956
300.49657671058298547
300.50536206553192642
300.51553243689733108
300.52535076849733287
300.53305334552959494
300.53731945514061863
300.53708700875057502
300.53219341500766859
300.52283997264817117
300.51030694517237407
300.49616645258169001
300.48193534315959141
300.46933555054414455
300.45832572387615755
300.4509056389978241
301.51324304734845327
301.5347926455532388
301.53024578169993219
301.50258109712058285
301.45937397905748867
301.41185113619332014
301.37165651328996319
301.34771229040472917
301.34342474875381868
301.35617306360563816
301.37857367303428191
301.40076778923895517
301.4140657765525475
301.4147442957710723
301.40528304766547762
301.39322728542595087
301.3885973770130704
301.39993925028983313
301.43208390797866514
301.48476711938127437
301.55096552595580306
301.61947341327709182
301.67732658373728327
301.71439846000998841
301.72585320593782399
301.71393833423110209
301.68669221298694083
300.48385924913031886
300.49310604016710613
300.50613673641777268
300.52063621665593018
300.53390865277492594
300.54321927721485963
300.5467650595228406
300.54363251075920971
300.53430241570180215
300.5198585902837749
300.50218099428684582
300.48344920067637531
300.46533771808395841
300.44989500296810547
300.43712102124811736
300.42871459179963267
301.48540403485469596
301.52595225961960068
301.54153685941287222
301.53081132066176906
301.49745568253950978
301.45011611647606742
301.40204231505794041
301.36625195789588361
301.35079894147565938
301.35568124188790762
301.37311373108713042
301.39248823147738676
301.40482327392328443
301.40642279326084463
301.39903288096132883
301.387991747451224
301.37991063382941093
301.38224604456689804
301.40058196836577054
301.43847289950269897
301.49433070736074569
301.56077155144089375
301.62652020035056921
301.68016694622275509
301.71311557882506804
301.72255328440843414
301.7118177570416151
301.68875601561319399
300.49373530972309254
300.5070198496471221
300.52160632788348948
300.53458584565458978
300.54306251472985423
300.54506456451758822
300.53973340527056735
300.52776467913599845
300.51087280454265738
300.4912594876615799
300.47152975859592061
300.45322501850995423
300.43820482455078036
300.42625053056718798
300.41825863161096777
301.52494879250036774
301.53977485598903741
301.52843618142475179
301.4946647430045914
301.44741816041312177
301.40067024433881215
301.36801526990842603
301.35640784013423854
301.36344606161986803
301.3784705503129544
301.38914853905987457
301.38806225281291518
301.37581378111588037
301.35826929445181577
301.34296866762332456
301.33784874769287399
301.34791520580256474
301.37697149808934682
301.42595285210501288
301.49140106334471056
301.56472886146565315
301.63445633135251001
301.68969041381791385
301.72303394625902229
301.73258336568449067
301.72223462956827689
301.69961552079610101
300.50822101652926222
300.52317101229721175
300.5362347728079726
300.54467019182072818
300.54671590024020134
300.54167957839598557
300.53029322227371267
300.51443658861705899
300.49633930991404895
300.47869538270884959
300.46275658941192432
300.45014317847522989
300.44032001416559297
300.43360564612009966
301.54205847730969481
301.53699207936091398
301.50695319343793699
301.46252044704488071
301.41819353060935782
301.38751419379116214
301.37652257696873903
301.38084282337490549
301.38937400266956956
301.39099430576663963
301.38056828199756865
301.36047479605662147
301.33785800882134254
301.32041249435508234
301.314965823706018
301.32661709195150479
301.35912977372703381
301.41358087993143045
301.48576833408702669
301.56618689970440528
301.64226806522742663
301.70162902651742343
301.73719991058356982
301.74767307519800852
301.73766353283053832
301.71562564467217271
300.52864237550318194
300.5395304319696379
300.54580198966590387
300.54616655849616791
300.54031101722017638
300.52918382328323332
300.51462119306944487
300.49862134664965652
300.4836199612198584
300.47054155372291007
300.46074666445275625
300.45336205562898613
300.44848416819695558
301.51537801418032814
301.48945119444880447
301.44760642969242781
301.40536535447989763
301.37602121332662364
301.36484015777438117
301.36779685777179338
301.37527166113466137
301.37814152481729479
301.37241138447956246
301.35924827937213877
301.34263799979100895
301.3277388827364689
301.3189666861737237
301.32171348415363354
301.3413712178401056
301.38174339904264798
301.44224931644140497
301.51648629618290443
301.59267092912716635
301.65826576187481578
301.70450260831125888
301.72789858953899511
301.73128333509458798
301.72155383028024289
300.52839354727927912
300.53257228098902942
300.53180642485904173
300.52617224134007756
300.51671057442632673
300.50519511578545462
300.49318342647086411
300.48272418811325224
300.47417501115290861
300.46865792822615049
300.46503001066474781
300.46317516731869546
301.49329599423884929
301.45448281081240793
301.41276209949222675
301.38110369147773326
301.36504574020028713
301.36220356022471378
301.36491172491793122
301.36533944307961974
301.3594363357786392
301.34753581509716014
301.33199938413497421
301.31651481666909831
301.30493218139810097
301.30246872244242695
301.31500677233492524
301.34757775455341289
301.40151613556071197
301.47221078416430373
301.54997262980532469
301.62318597418146737
301.68179588116106515
301.72084227826201186
301.74033519647679213
301.7452795852114491
301.43834422425635466
301.40234826172320481
301.37398215673528057
301.35791281591389179
301.35186549692900826
301.34958007691096782
301.3445967683516642
301.33371864659432049
301.31810736730267308
301.30116565810789098
301.28678024879309305
301.27858763355209248
301.28045733580643173
301.29677089984937766
301.33150907965580245
301.38580156467810411
301.4557032624914541
301.53268995293836952
301.60603013912299275
301.66637108235420328
301.7086384493744049
301.73277321259200789
301.74305429725023942
301.36750225437549489
301.34600636121473372
301.33289400698077998
301.32390878281870528
301.31469298041167804
301.3033622738144004
301.29122488930698864
301.2816733577168975
301.27704335103226185
301.27833804867111667
301.28671063581049339
301.30481617480819523
301.33623513292690177
301.38346520315968746
301.44530505384500429
301.5157464717037783
301.58579555763253666
301.64662959507160167
301.69261497764881597
301.72261153910079656
301.73985412867909872
301.28147695123664107
301.26987922936302766
301.26179313367208579
301.2597431394313503
301.26461657274199979
301.2749773610162265
301.2887408093786803
301.30617051317807409
301.32985909465014629
301.36388444559941036
301.41044975855697885
301.46766632114452023
301.53022797897745022
301.5913936874383694
301.64585687339177866
301.69122160670650601
301.72797892782335794
301.2253611801650095
301.23614095505854493
301.2533971105820001
301.27444431833919225
301.29959001590702883
301.33169485494619266
301.37392825695587817
301.42682958920147485
301.48727694932551913
301.55058747996241664
301.61208372324085758
301.6691094564897071
301.72011521852613214
301.21854866413934815
301.24879909674984901
301.28318524341892726
301.31930824505388955
301.35842716338584069
301.40336962377870123
301.45516516728548595
301.51203180552215599
301.57018829989459618
301.62623190527409633
301.67819915894847327
301.72473460720766525
300.41161124562484019
300.48458135006484326
300.56997126947641163
300.64659712116548462
300.69896331271365852
300.72399246385202787
300.73029669299967281
300.73090744873007907
300.73553701501919022
300.74740648604256421
300.76480420102660673
300.78470990193517309
300.80389217507638477
300.81852303443406527
300.82372363050188824
300.81498690991276135
300.79025211566346343
300.75159093491066642
300.70600935244277707
300.66491219069263252
300.33548579018673763
300.36004765444528175
300.42081905371207995
300.50437669213539493
300.58846102681172852
300.65361568152252403
300.69189711329875081
300.70848557463131101
300.71512462634507301
300.72065885805767493
300.72821082601683429
300.73699347555498207
300.74675733685063506
300.75894280760581978
300.77476271393180696
300.79203325678548708
300.80456183644645307
300.80422208553522978
300.78449379643052453
300.74522188423145508
300.69469248047425936
300.64835699206565778
300.40507137316149056
300.3686016645930863
300.34601461256335142
300.35577388525246079
300.4042114673518995
300.48125107297136083
300.5647097559087797
300.63360947544020974
300.6779838830409517
300.70098729792891845
300.71332448390342051
300.72325074382547427
300.73243028623051032
300.73883960846018226
300.74263867563206531
300.74773653338030499
300.75944297720332088
300.77910558451674206
300.8016211737800063
300.81683592744576572
300.81409854383463198
300.78869024843271518
300.74533589824108049
300.69744537604577772
300.66289715049470033
300.65791436981260176
300.56992804593312485
300.56225911859178268
300.54959790901455108
300.54575904641563966
300.56473546210492032
300.61150770371170893
300.67729499207769095
300.74259173492453101
300.7896864993148256
300.81320405357121217
300.82103298183284323
300.82656206743661187
300.83850305297221439
300.85580997647724644
300.87163103621497839
300.88150992125628136
300.88681084055406245
300.89287258959780047
300.9032204889778086
300.91585850525132173
300.92433783577973827
300.92250955860004069
300.90991485062698985
300.8934480537033096
300.88418458473893224
300.89212012745934999
300.92206746725810262
300.97199150877446527
300.97922517434062684
301.03051621993319031
301.06981401448484803
301.08944905110416812
301.09473922540684043
301.09705404174286514
301.10640502033623989
301.12327438507151101
301.13931518512549701
301.14579143168998598
301.14355141275069627
301.14201404619905134
301.15074220186471621
301.17136778334969449
301.19389345585307183
301.20471350926851528
301.1980442730963432
301.18076990000025717
301.16807387891026337
301.17378621977843522
301.20201071839392171
301.24568104632680843
301.29218429287885783
301.33080693800366134
301.35743002516272782
301.37399634768837586
301.38497820773761759
301.39414477506721823
301.40370803224260499
301.41486438412084681
301.45729293757864298
301.48826703446076181
301.51069061228673718
301.51419974336926089
301.49721096237260554
301.47038806973324654
301.44864755616669072
301.4434235608540007
301.45434836887511665
301.46976159191837041
301.47756565844832721
301.47488858033477754
301.46943326729035562
301.471940399314974
301.48497951763420133
301.50066434785026104
301.50736350469492209
301.50034031095458431
301.48662721108456708
301.4794687616932265
301.48904341510285576
301.51546112620212625
301.54908016849617525
301.57820376444777821
301.59654294912405703
301.60554357373985113
301.6112159801703001
301.61825319792234268
301.62701091184737834
301.63530034499882504
301.6420007302830868
301.65010592878735451
301.57538132322440561
301.60648294703969441
301.62906185625911348
301.63088416215924781
301.60890856567004903
301.57432406129350966
301.54455651336991195
301.53289466626068815
301.53915159903340282
301.54998955221543611
301.5507627670916122
301.53796099248995688
301.52185146031666818
301.51649589339615432
301.52810548918529321
301.54957975225619293
301.56729080186352121
301.57276221924848869
301.56993248612423031
301.57057913740311506
301.58467635878952251
301.61301865483659412
301.64635104671361887
301.67311148086110961
301.68754148857772179
301.69176896227958196
301.6925578948786324
301.6951484302947506
301.70000875716499422
301.70503277737310555
301.7100945202771527
301.71959362918073566
301.74041229495151129
300.49357054718842619
300.52572676754732584
300.55190496192204819
300.5665702912068582
300.56657277996498578
300.56287713042365795
301.30246892203786047
301.33486852434333514
301.35909795569909875
301.36106499522736613
301.33712423018636173
301.29773680059173557
301.26163974041475058
301.24316412183679859
301.24329894593643075
301.24876079009169416
301.24476114704492602
301.22806737727256632
301.20931903160015963
301.20273925413891902
301.21419460687781111
301.23539425638392686
301.2511833922313258
301.2523243087237006
301.24331960668519059
301.2373601165479613
301.24551555498902644
301.26880911075812719
301.29751596768608124
301.31932952712691076
301.32852196740009276
301.32768513181486014
301.32392346621969637
301.32231411220942618
301.3224355464831774
301.32123650407118021
301.31869938214470039
301.31989663463440365
301.33315565419695758
301.36179391345098111
300.18465768868355781
300.21726380972569359
300.23966271025915376
300.25573662995600444
300.25812274116651679
300.24422607591861833
300.22694641445644947
300.53475101358861821
300.56186824841461203
300.58016160658411309
300.5755160397395116
300.54449474221132732
300.49719133167121754
300.45329488733557355
300.42783897361545087
300.42170741348451202
300.42128765320302364
300.41112592475701604
300.38768950456324092
300.36173166677957624
300.34822325300586954
300.35328671163540548
300.36864224873625062
300.37856725698475202
300.37340294907511407
300.35773537314429404
300.34536265790802645
300.34789960196474112
300.36628104856760046
300.39048709883212496
300.40748204295277901
300.41135442968823099
300.40503029552758107
300.3960466271300902
300.38977729643011116
300.38556254070647356
300.38000235603823285
300.37264440463150095
300.36923014679251764
300.37840988538545162
300.40389310873632667
300.43862513608604559
300.59973520274479597
300.59312528126179132
300.58494018733324538
300.5764366990349572
300.56802723958514889
300.56191363024464636
300.55824830800315794
300.55902880642366881
300.56482491719833661
300.57497619747613271
300.59089635145357988
301.26535796296252556
301.27170619842593169
301.27382859639044455
301.26732263291495428
301.24905266341335164
301.2183562491769635
301.17898391221399379
301.13947367574235159
301.11306642722530569
301.11210154608187395
301.14410924544677073
301.20744476976193482
301.29229070090559617
301.38399229544108948
301.46786255682781075
301.53283343275120387
301.57178000336233481
301.58120887388230358
301.56193456197814839
301.52005027728301911
301.46712746104100233
301.41932927546497467
301.39159486157905121
301.39258668195230939
301.42106714276025059
301.46529234293456057
301.50823239673212584
301.53392282983890027
301.53281380173234538
301.5049360646793275
301.45948238593007318
301.41173461363496244
301.37867620170032978
301.37387794474460634
301.40382156779179468
301.46625596412712866
300.57888137061166844
300.57438852422006903
300.57238655145278017
300.57242250635630398
300.57387497422166689
300.57617193770533959
300.57867105036802968
300.58081622315273762
300.58184419155054456
300.58119711575210431
300.57845757775345419
300.57372028717037438
300.56729875214398362
300.56032108767573163
300.55316477294292099
300.54804479326418232
300.54518192158809597
300.5467416084644583
300.55338946758359953
300.56437455603662556
300.58114944968872351
301.21159454126603805
301.22565296275854507
301.24484229351173781
301.26076599126645306
301.26420465585408692
301.24919138435507193
301.21624217571388726
301.17391449264948733
301.13776553517504908
301.1248132629139036
301.14600636731876193
301.2016792231941622
301.2819377844147084
301.37074881703154006
301.45142010230648566
301.51204705382082238
301.54620170842582638
301.55207760695640218
301.53262188200386618
301.49483902158766568
301.44967316314864547
301.41050130716234889
301.38958136496682982
301.39361524140338133
301.42130354771740031
301.46247266187981495
301.50207979886982912
301.52550410089719435
301.52352605301058475
301.49588287927718966
301.45149596771693723
301.40560393064544087
301.37554040341052541
301.37536469056817623
301.41134904504912129
301.48017028546598794
300.57660424740544158
300.56730714681759764
300.56003956503792551
300.55497008131806069
300.55199666157648153
300.5509316664877133
300.55134287708762031
300.55269988845134321
300.55409023949817993
300.55462988542336689
300.55345505934349148
300.55034903300742144
300.54542924268406523
300.53977941534367346
300.53381958469566371
300.52971737979282807
300.52775182680039734
300.53022385615361145
300.53778466282506088
300.54960242815343463
300.56708791115596568
301.19155527532996075
301.22762921110739853
301.2661648249851396
301.29270779512427225
301.29590592302884033
301.27220216190818292
301.22886559254874328
301.18208231391008667
301.15220133184141105
301.15428122239489994
301.19273410013312287
301.26000038889668531
301.34078271355792822
301.41821168412968746
301.47867502321685151
301.51435989557904804
301.52373470526640631
301.50993732398745806
301.47996230436223186
301.44322888608974154
301.41025411298340941
301.39104671156889026
301.3914460001730049
301.41152226743145093
301.44534905514547063
301.48177920813230912
301.50810669725854041
301.51430666487755161
301.49697410516870377
301.46161808851087471
301.42080545212763809
301.39104277786998409
301.38711202903459707
301.4170265555690662
300.56274269426779711
300.5516077931420682
300.54250339048979868
300.53587531995640347
300.53196874944484307
300.53056154714175818
300.53115443266739248
300.53265594968149799
300.53391132316613721
300.53366761882784886
300.53126515414390951
300.52662771132850139
300.52086813191681358
300.51477768701090554
300.51069371214344983
300.50891204879729912
300.51168975771611258
300.51956730681615682
300.53169770295113494
300.5492210607789616
301.18301772681155626
301.23520749722484879
301.29027132280214119
301.3300282620185726
301.34037138671845923
301.31724266000276202
301.26875675009216593
301.21276741723505666
301.17077642566579243
301.16028041813876825
301.18778839773455047
301.24717546667056922
301.32314737338055011
301.39753014143525434
301.45518245530558943
301.48787893896087553
301.49495141274729804
301.48176101892676115
301.45708012424324806
301.43047456790247907
301.40990911754153103
301.40117090551854062
301.40698033901992403
301.42598219591866382
301.45376947461818418
301.48222710287166137
301.50156612678352985
301.50370670663596684
301.48565467667191342
301.45246652935668408
301.41585299395939046
301.39064210028038815
301.39036364766155884
301.42209406027313889
300.55787907999729214
300.54459649411415967
300.53308791135083311
300.5241524094764145
300.51828709463211453
300.51539545789438534
300.51500629306087831
300.51599638697746286
300.51696833685593901
300.5164809221048472
300.51369552720223055
300.5085120358611448
300.50203798908091812
300.49532420757361706
300.49084314639907234
300.48919692354866129
300.49232274734009707
300.50056810939020124
300.51275181915838175
300.53005190963403948
301.25963027912064263
301.32340499956075064
301.36840838087101702
301.38004238607794605
301.355419926138552
301.30330264335202628
301.24130423105435739
301.19084613894557378
301.1705131452073374
301.18862080495193823
301.24128544044754108
301.31466566131462059
301.39025835417055532
301.45157932565803094
301.48836425478100409
301.4980750330802266
301.48543003914437577
301.45995905478781651
301.43274900898387614
301.41268775814245373
301.40499320417080753
301.41188157359096067
301.43139721472454085
301.45907107088584098
301.4877801812589837
301.50839116731259537
301.51308601518132946
301.49811884705894727
301.46730815945647919
301.43143520576307992
301.40468070088388686
301.40068509971524691
300.54120923595701242
300.5288468675275908
300.51855187719934293
300.51100494734930635
300.50616780971228081
300.50356482823116266
300.50220122326032879
300.50093120577025729
300.49846477087572794
300.49401747573494958
300.48745480462696378
300.47993501069640843
300.47265115673332048