/*--------------------------------*- C++ -*----------------------------------*\
  =========                 |
  \\      /  F ield         | OpenFOAM: The Open Source CFD Toolbox
   \\    /   O peration     | Website:  https://openfoam.org
    \\  /    A nd           | Version:  12
     \\/     M anipulation  |
\*---------------------------------------------------------------------------*/
FoamFile
{
    format      ascii;
    class       volScalarField;
    location    "0.006";
    object      k_0;
}
// * * * * * * * * * * * * * * * * * * * * * * * * * * * * * * * * * * * * * //

dimensions      [0 2 -2 0 0 0 0];

internalField   nonuniform List<scalar> 
75962
(
4.343909151206633225e-05
5.7661727198078679513e-05
6.6671151161614474736e-05
7.7341553507616927934e-05
0.0001012926031215405896
0.00014020179922953138738
0.00017086956766924652298
0.00018887212374275701154
0.00021383982617715041174
0.00027410017386774972788
0.00034276617942807807195
0.00037897966884199138548
0.00038916561147500140262
0.00039528708555350863894
0.00041101533585046639598
0.00045411570875600711572
0.0004965153182096958967
0.00053295344409733482523
0.00056794187929716511126
0.00060110086539913063983
0.00064615576388865234806
0.00072629298611618970001
0.00083823549443876228544
0.00095117587963526183288
0.0010358418839818987669
0.0010982850331689181927
0.0011620850428893120948
0.001230269898648499562
0.0012853081292000204539
0.0013166900902735309727
0.0013369623809431636485
0.0013721789232895946747
0.0014467274585963378532
0.0015377565190831620195
0.0016148095084633103374
0.0016628226379396752587
0.0016930981993927092435
0.0017368014988440470727
0.0018366914441999111166
0.0020512978318147677761
0.0022747662541491102915
0.0024374870783923871
0.0025195407973905470551
0.0025460957636440602683
0.0025579081770185823144
0.0025800830349459397475
0.0026315503490621653185
0.0027198120202587259576
0.0028319303693644967516
0.0029576967803305125558
0.0030825502619808075808
0.0031880262417307396461
0.0032585662990613287193
0.0032950137047724364393
0.0033201909106228178099
0.0033676013335691475786
0.0034969252105451109798
0.0038145807279248737306
0.0041246453368976587761
0.0043359216552335865316
0.0044475580292717802056
0.0044973098686572491114
0.0045213995814425006481
0.0045377987348765207523
0.0045514154635251276304
0.0045690596571535679882
0.004604500030980557615
0.0046884997950044455736
0.004921673065286546675
0.0052243034231980716581
0.0054393659042847415305
0.0055414751946564408391
0.0055816753602246612156
0.0056437759264859888031
0.0058282478163934987522
0.0063446977808459901343
0.0068536762793922571119
0.0071708524712897347975
0.0073268384529093042584
0.0073846064881900449692
0.0074001314049208883825
0.0074023305078709548607
0.007401351000681100599
0.0074018649282427779676
0.0074168467434522844864
0.0075062106618360852073
0.0077998145227472026955
0.0080471759330330260018
0.0081387005213136472126
0.008144032480410763955
0.0081117137760717585027
0.0080292148378995134572
0.0079975621278766274164
0.0080019525727765099254
0.0080580787369500701811
0.0083020968996951431673
0.008822713969609787682
0.0092629590331656502106
0.0095586498034212659392
0.0097067952469063380899
0.0097714749025539296423
0.0098500569402385964451
0.010042620670124501395
0.010626251466397717074
0.011404234722821378345
0.011921585042322518921
0.012150665628373465837
0.012187514640493257376
0.012152645567572502999
0.012023862627913854337
0.011973011069058890968
0.012001434166406171888
0.012242161273339971853
0.013012701248743126572
0.013655791977579611468
0.013944321098849221316
0.014011608024288494875
0.014010568434885550468
0.014011560549347268356
0.014046995297842496814
0.01410995024999582223
0.014113033417345356713
0.014055973251796027856
0.013785467603280769991
0.013471828820165732132
0.01334639514280728384
0.013332074623792813592
0.013369884797584007802
0.013548729981226553809
0.013753712697553334074
0.013866344534795684365
0.013916486561182236578
0.013933034869291323343
0.013934847389352102848
0.013931690026032204216
0.013913732344443079797
0.013845947721792166776
0.013751792367276752943
0.013683661763442187681
0.013642145337172315728
0.013622932038793391166
0.013620028979908400252
0.013623180067692102282
0.013639890578156930317
0.013697349178059571584
0.01383735284521408343
0.014002497856895652559
0.014174065111785262919
0.014336539004606097328
0.014471775672657829701
0.014568562282781291617
0.014625631276759996913
0.014652868938579886871
0.01466626563212376777
0.014683788226595453907
0.014721831690472518897
0.014824894858242091897
0.014991797448573889254
0.015153130194505971123
0.015298409820799470718
0.015424090966937484617
0.015541033116736375011
0.015659454887726655808
0.015790687554447329494
0.015933998202199591704
0.01608338805780860914
0.016224758292892681177
0.016342629080109617734
0.016429138767029720369
0.016483829582739306652
0.016517529269424999216
0.016544795757038637668
0.01658550232127816576
0.016655161249701736642
0.016763775219763986379
0.016910598108108760435
0.017088151337885593845
0.017282299861621965714
0.017474606996531940467
0.017650398355683511592
0.017796969722176345791
0.017910086308513067932
0.017992747325648268675
0.018054204445255243178
0.018106708261096775281
0.018160937759625298688
0.018226394787572767348
0.018307418921452080218
0.020942811947047456494
0.020903399953820237661
0.020864359916610734219
0.020827041297525869523
0.020791654064074530095
0.020759489871723071225
0.020729925904675716025
0.020703336948105371257
0.020678348747791994167
0.020655303735683722133
0.020632825390101128954
0.020611649121414506169
0.020590943869963237306
0.020572079662379106485
0.020554068536099919656
0.020537497722782786791
0.020520792689413470261
0.020504820165247902158
0.020488672977273535841
0.020473525768446423911
0.020458190706304155149
0.020443750785361862465
0.020429081362092191276
0.020415090029991183468
0.020399857823868446094
0.020383665095988042631
0.020364840242032486439
0.020344950232826286562
0.02032346511609061171
0.020302570247149407529
0.020281360728699848739
0.02026143045244252483
0.020241164597890930199
0.020221772860138178401
0.020201597594559354831
0.020182158359831000455
0.020161869578951729237
0.020142124587842168137
0.020120898820879092039
0.02009962457603042818
0.020076736691152580888
0.020054424616258770958
0.020031639934628493044
0.020010487486828300308
0.019989593206015048715
0.019970637284825336344
0.019951755845158528069
0.019933977351696354624
0.019914877410024282856
0.019895316284708700755
0.019873570814765453146
0.019851341956205810491
0.019827787741354230971
0.019804634758963220176
0.019780723342992811292
0.01975711488523499218
0.019732360960281906948
0.019707769075822435118
0.019682697253182401126
0.019659210362740948269
0.019636444368562468166
0.019615681856571701852
0.019595024660482251305
0.019575407649402850468
0.019554822626872407632
0.019534394692286273509
0.019512268603618865975
0.019490183100519475889
0.019466795509837715727
0.019444253564559761671
0.019421032365624486815
0.019398843431470236959
0.01937592899956644063
0.019353978191588048358
0.019331542279198060674
0.019310240001016328731
0.019288430245210826108
0.019267265391333165958
0.01924490293435293653
0.019222475409840025784
0.019198621032236278666
0.019174990932954393691
0.019150910660990276557
0.01912820528824446531
0.019106019393979781218
0.019085232253754975951
0.019064172503874918241
0.019043038759684355332
0.019020517818566673451
0.018997478178265810034
0.018973570717941461855
0.018949893386282567337
0.018926062631778230866
0.018902769880071376707
0.018879678580659375181
0.018857429147841147515
0.018835590217288429582
0.018814421032879922319
0.018792937770401092756
0.018771683476438701804
0.01874967801806746992
0.018728108167173962428
0.018705820567615934896
0.018683995121001936018
0.018661368172405382732
0.018639176662988293093
0.018616287748432755467
0.018593808598201127386
0.018570630962379545276
0.018547677484461271707
0.018524379105629169145
0.018501765032804661643
0.018479715276078306774
0.018458650772305820048
0.018438209538920512925
0.018418256457635413109
0.018398184986903921151
0.018378225845365182139
0.018357519234608786485
0.018337212450053774065
0.018316092544439697282
0.018295606397995149706
0.018274290175476794879
0.018253075269689781474
0.018231235607607892968
0.018209010474537334207
0.018186631010677096337
0.018163964270343363472
0.018141687472857079971
0.01811987647193294762
0.0180986650430608291
0.018077858585164467697
0.018057007858989497506
0.018035567924231478421
0.018014149681507298645
0.017991830068752087679
0.017970334200449741141
0.017948270338228176912
0.017927423455358342669
0.01790631528079576415
0.017886337001337695995
0.017865718497599505921
0.017846104143325457192
0.017825376251213196493
0.017805941770744265762
0.017785506000880767219
0.017766423344188413819
0.017746484762053045536
0.01772815400162190691
0.017708666490285341483
0.017691258882355252735
0.017671663903878483126
0.01765410383391823046
0.017633973663164874413
0.017615582768102891476
0.017594966767386283069
0.017575995262453715517
0.017554889729978494922
0.017536075668997237742
0.01751529309071848256
0.017497026610299171168
0.017476919994405416131
0.017458927043195526102
0.017438865916659801458
0.017421090319516614742
0.017401059093003958672
0.017383614171891631495
0.01736387017257649476
0.0173466928030588316
0.017326601004500775255
0.017308894303037676565
0.017287776036074647967
0.017269623226414138745
0.017248381522379719472
0.017230917076032886692
0.017210590212079154154
0.017193901083418967196
0.017174134755262988189
0.017157469411083967059
0.017137533939258896287
0.017120498098759814182
0.017100232174608244462
0.017082963907923208458
0.017062833767035320148
0.017045830749781960139
0.01702598637081601668
0.017009881822308666605
0.016990667671448037024
0.016975313508433585719
0.016956882752717179763
0.016942100031171969388
0.016924073523804341462
0.016910053614013743906
0.016892534619726763678
0.0168792123279825311
0.016862001702112675017
0.016848650876832831774
0.016831048535916767056
0.016816913504896894432
0.016798581476720642058
0.016783747220548879409
0.016764932377651513978
0.016749917294803087775
0.016731150532953428106
0.016716223087685264104
0.016697671248837652608
0.016682910823301679015
0.016664685022132454117
0.016650585645219668357
0.016633241061338167183
0.016619970581555912337
0.016603474505222991925
0.016590744058864896615
0.016574443212724020158
0.016561752292501417949
0.016545110725805653451
0.016531735001921323003
0.016514161883316443719
0.0165000366281719546
0.016481600430835290083
0.016467689856030781614
0.016449445849332104685
0.016436527363062516938
0.016419472352437063101
0.016407826389045407356
0.016392048351398656042
0.016380935299882399409
0.016365599631651340379
0.016354144287856281492
0.016338304210170788433
0.016326459657551334326
0.016310392398749609666
0.016298313375910589151
0.016281790793328976275
0.016269481564380714605
0.016252582208424029564
0.016240293903068726833
0.016223804190868457847
0.016212164958028286305
0.016196507275215616534
0.01618494677279399413
0.016169893321017262539
0.016158660931138085076
0.01614411793524779537
0.016133864922301784789
0.016120182113068291102
0.016111153025199637101
0.016097900274615956767
0.016089558635458627023
0.016076683719451711346
0.016067988879859836093
0.01605507584508839361
0.016046148333508467032
0.016032776772567661205
3.9758235033171542233e-05
5.7298786695226986917e-05
7.3486439091015413059e-05
9.0709046395399256513e-05
0.000117302650435122547
0.0001555382535147396242
0.00018872243833919117055
0.00020672714977222451742
0.0002242177241287523202
0.00026903287270278622521
0.00034342258883044525161
0.00039016966082086476869
0.00040789003044369996935
0.00041584498912508496404
0.0004290780897342126826
0.00046595785223347890771
0.00053382230057989689571
0.00057726981818919233334
0.00060058936041835781633
0.00063300470728159944408
0.00070344658128891613107
0.00080399240179072526628
0.00090240086597452020753
0.00097768850302179218306
0.0010387367416373285457
0.001109833720594585911
0.0011953132345857819373
0.001271455968968371146
0.0013170466544133430618
0.0013426986787343818744
0.0013799915803235976702
0.0014454674942103015647
0.0015316731958698096266
0.0016170924233573585969
0.0016820292006957161552
0.0017201082139904509336
0.0017452131792689382517
0.0017843637401403708315
0.0018761078007753220417
0.0021216144386781536635
0.0024142541953596830841
0.0026217940097874124078
0.002725770214352062331
0.0027571882746364275753
0.0027619485980026870463
0.0027657492202576893295
0.0027771052167260058298
0.0028136273708829228658
0.0029205847637359832504
0.0030746127920006291467
0.0032204379419994979758
0.0033406400030070023885
0.0034197202402940721916
0.0034582658249663195127
0.0034769668495094954719
0.0035055098835867349975
0.0035809314758499114287
0.0038263225353721342682
0.0042008210616272158994
0.0044774161898127546114
0.0046351206407799954226
0.0047029466316773496995
0.004725270526396777894
0.0047328467940999496139
0.0047390875778015924963
0.0047513480590371743109
0.004782977085507730125
0.0048759070031098869849
0.0051497229720309217055
0.0055032021749792815052
0.0057621206840234124799
0.0058946575330621553759
0.0059403117070256118704
0.0059823773517313078019
0.006095381608882076245
0.0064659235959138357946
0.0069720287093817572346
0.0073223252444169417349
0.0075156927522332783037
0.007601569832820721101
0.0076329371279124490907
0.0076434125268063932493
0.007648829322952065482
0.0076568534871515525272
0.0076821702209447697424
0.0077860881331458155902
0.0080899670813585258106
0.0083501672717049522932
0.008466567562637829919
0.0084861475072481248882
0.008472166756123881981
0.0084138680289414409519
0.0083764303141281269693
0.0083746512533901824177
0.0084033478619520915465
0.0085619443852336402784
0.0090852190514882445044
0.0096737114829138336897
0.010062169100022664778
0.010257683620948867056
0.01034314554260481675
0.010441409558017426124
0.0106756098835348711
0.011284167752796064529
0.011940745135680783454
0.012378338176526386405
0.012566502732305816908
0.012591564566616277737
0.012550051983322390095
0.012425162341722176609
0.012386321401683293014
0.012427798904435590974
0.012734347342196868091
0.013633798415522245875
0.014332127951693475823
0.014644744952772261598
0.014724303823113887163
0.014741693228646116087
0.014786117916530913327
0.014949506351683123154
0.015096139742618619115
0.015120643410974890855
0.015074089185505800542
0.014809034465197695035
0.01443568082531910407
0.014277369796862013698
0.014256245195071737264
0.014295120148665281176
0.014482365022953783487
0.014687336284772461309
0.014789903611477089526
0.014829537210909659803
0.014837774725707505996
0.014835754071867077869
0.014822989604361508711
0.014769935398159484211
0.014653549631718441534
0.014558988663895267024
0.014496666666765927259
0.014462512049716347642
0.014448585111816960105
0.014447238838843835806
0.014450329131809663483
0.014463774988308990624
0.01451103949132719062
0.014652494751634529205
0.014840027808405419421
0.015008641817250515174
0.015142015103090178743
0.01523114723713931383
0.015279083839462349187
0.015301483716657494905
0.015321181443167245645
0.015359815809964962041
0.015446661879398639397
0.015572468490129358007
0.015713061966535296632
0.015853180479346785925
0.015983545268300571041
0.016102352590252472231
0.016214834713562390617
0.016331670608997938404
0.016462470710946593144
0.016611716898644813406
0.016776893861726493301
0.016947330088918122898
0.01710573746735407144
0.017237220323008051875
0.017331304998133092304
0.017388784471541011978
0.017418166505351512924
0.01743541683289285063
0.017455193194551521518
0.017495404241881572921
0.01758594263146905784
0.017732134428158480982
0.017921540189751752198
0.018144652348883183457
0.018379920065839047
0.018599579542695414414
0.018779976464238366807
0.018907196482408246407
0.018984777106877612218
0.019026130043858068691
0.019051766270501889478
0.01908081286383103356
0.0191261921893696972
0.019197636587993359425
0.019294577238907949235
0.022105966720664425168
0.022061013353919644436
0.02201721482261482718
0.021975068757415474469
0.021935461125668895277
0.02189820395733128866
0.021863936654607715737
0.021832273726328378649
0.021803409398109849932
0.021776320491862517781
0.021751043160466419085
0.021726793647285958661
0.021704061905669830984
0.021682090498660978178
0.021661419312587675695
0.021641337513175692986
0.021622420915133003932
0.021603871980878458503
0.021586200790918663728
0.021568694102915859229
0.02155194158444840094
0.021535189952003371688
0.021519079473570085909
0.021502927875271353464
0.021487170795923864891
0.021470643463591135292
0.021453335893482229635
0.02143429566698923025
0.021414147226391792161
0.021392644150710616452
0.021370983466551196628
0.021349132052518600411
0.021328001955603564238
0.021306953714160612595
0.021286240766301697119
0.021265265469250938662
0.021244567759421462139
0.021223681628485008277
0.021202769266091981565
0.02118093021306777235
0.021158443982212796208
0.021135165298706144049
0.021112028484039986609
0.021089117327097301607
0.021066991465418676011
0.021045432467936116272
0.021024778872062471757
0.021004608166137247321
0.020984773413749435722
0.020964330452206272198
0.020943009070158207646
0.02092024341426660175
0.020896455312327349291
0.020871677444737026658
0.020846510854089863457
0.020820934437757794566
0.020795095117275595037
0.020768764493400277554
0.020742280989293943733
0.02071612133949481474
0.020691198090773809531
0.020667732074676023468
0.020645744589301812805
0.020624421620450701653
0.02060330015609514176
0.02058160930275502315
0.020559323600534681886
0.020536240855488403084
0.020512852694295147238
0.020489180434843996814
0.020465710640968935718
0.02044219174412868073
0.02041899877607999611
0.020395873872018122769
0.020373118099519627738
0.020350450977629511162
0.020327867961633223903
0.020305101257073725901
0.020281970504392399235
0.020258256211442941808
0.020233784050015364564
0.020208602628279507402
0.02018309902755420146
0.020158014486313807073
0.020133916845679371982
0.02011109027100434557
0.020089034716412393355
0.020067192383257225624
0.020044757757900027312
0.020021585234269046599
0.019997458679817701338
0.019973030182790719317
0.019948302351654206843
0.019923983691201123392
0.019899773678933491833
0.019876251718404468888
0.01985299697435641969
0.019830507475321276084
0.019808100219033081962
0.019785821797975725739
0.019763134173440475433
0.019740134555644033715
0.019716907374276174819
0.019693612311567226109
0.01967025212362743386
0.019646799878265622935
0.019623147576410652354
0.019599452797351618605
0.019575519009007405491
0.019551644885927761675
0.01952734934964044447
0.019503498716806677571
0.019479735604936484344
0.01945726974903299461
0.019435196929457210918
0.019414082695715317861
0.019392613941197262006
0.019371258871629215559
0.019349353905390200004
0.01932732522270086406
0.019305176532692588237
0.019282953125386546878
0.019260677299436455151
0.019238357222468579349
0.019215505922761898921
0.019192825472950845317
0.019169181397063982802
0.019146015555453317625
0.019121843524133350783
0.019098668098555395684
0.019075249501610002517
0.019053179045764988969
0.019030898888126090984
0.019009333311902736063
0.018986515261600420829
0.018964357140771007093
0.018940617358909461049
0.018918424850739891385
0.018895046840368433239
0.018873733706630237139
0.018851407622060521729
0.018830872990452860588
0.018808956326768367512
0.018788606730195590855
0.0187665783344345867
0.01874637369447527957
0.018724504678381232586
0.018704609352017721041
0.018683108001473890808
0.018664009580500722646
0.018643098920537740093
0.018625062142686013567
0.018604328768436848712
0.018586258065381944249
0.01856493769083388326
0.018545894652799207319
0.018523769365729355479
0.018503952053179527348
0.018481299415393014768
0.018461711066883209481
0.0184395114158593873
0.0184204759840250476
0.018398893075147474546
0.018380006030748193002
0.018358430493298195929
0.018339816516429598842
0.018318269819849606478
0.018299874646923109528
0.018278412177525283494
0.018260042178528709811
0.018238155628235008104
0.01821935785126944235
0.018196410170407378848
0.018177081513165476573
0.018153982282797027914
0.018135395876865623849
0.018113613821632040812
0.018096388960656389217
0.018075601880605175753
0.018058672801192814789
0.01803758876445936063
0.018020102465834908489
0.017998367918119748121
0.017980338943645621935
0.017958535038109981613
0.017940624183171664102
0.017919155514424245368
0.017902159803026233137
0.017881410741138106107
0.017865346610633700553
0.017845351657893648162
0.017829923021770339997
0.017810428197044595594
0.017795712245299386695
0.017776679827265606804
0.017762596241777905276
0.017743972904458026052
0.017730029364992308527
0.017711179601318176313
0.017696624330394237351
0.017676921202348958723
0.017661297171484745955
0.017640813092145424951
0.017624763542862600246
0.017604239294190610066
0.017588583253316539268
0.017568481566896353152
0.017553251355295399622
0.017533547146777114789
0.017518675342990563948
0.017499407533641275075
0.017485043078885979806
0.017466503147747374641
0.017452828707294552879
0.017434794018725878473
0.017421593110282566907
0.017403629082020647539
0.017389960515290646403
0.017371164700403809306
0.017356794113199847107
0.01733705300208659289
0.017322569766766226368
0.017302851236223753401
0.017289238087852362713
0.017270680957097064856
0.017258423233554774645
0.017241419639062057628
0.017230156319113544561
0.017213727217728496538
0.017202146077515859807
0.017185090207790111594
0.01717275773887573867
0.01715496878886378293
0.01714207735246914624
0.017123638989710684988
0.017110214632303392263
0.017091288726399481851
0.017077953637099536205
0.017059539107904791305
0.017046979141493130011
0.017029578715156340474
0.017017497630688875609
0.017000846636856848521
0.016989162529249073746
0.016973148515030320876
0.016962347029549174754
0.016946963673964424851
0.016937102666594629208
0.016922015155134272069
0.016912722406122075031
0.016897996254243805025
0.016888461437131865872
0.016873858591521382483
0.016864169910478836456
0.016849244326218933143
4.5784889180192198024e-05
6.2089983081376241099e-05
8.002902749818178031e-05
9.2652233620823105887e-05
0.00010782570843148139741
0.00014575443017348553793
0.00019221658693915796541
0.00021772146446322814353
0.00023613925476819548274
0.00027980906880166342638
0.00035787374404418719051
0.00040548974339814830353
0.00042151164783373534306
0.00042929599279394899504
0.00044439355888953069621
0.00048634305226069048751
0.00056824751851412391278
0.00063118863561168944958
0.00066614634480141750837
0.00068571792451281913215
0.00071291741048320729848
0.00077577099127123356169
0.00091007588514602439159
0.0010439812364114314791
0.0011475437940372467619
0.0012288215379390597833
0.0013040717264640061014
0.0013706532663410912146
0.001414726396989359836
0.0014368001536277997306
0.0014579568852003202146
0.0015044466162416178425
0.0016048899563508225042
0.0017034193198723949179
0.0017703990903187708829
0.0018051811109850446086
0.0018299123658750467841
0.0018735938510222971236
0.0019790331086520390226
0.0022241683163193373685
0.0024839357702528359548
0.0026799936816047946128
0.0027905125599415850531
0.0028367265365035498371
0.00285629722844176967
0.0028815100149549620692
0.0029320376225280145657
0.0030176543857383217491
0.0031361178737291071916
0.003274682478009855336
0.0034118660300111376162
0.0035198718819588179808
0.0035816698872078354086
0.0036060997135437091246
0.0036237159934624104361
0.0036627871211195850952
0.0037889977100148495431
0.0041831986022807798875
0.0046229605290977219753
0.0048848989765240382124
0.0049897229850607936058
0.005009193440729408156
0.0050051645024929191166
0.004995247945762248433
0.0049953232316975355876
0.0050059096366458890118
0.0050541910464273961945
0.0052301296676964649859
0.0055771821903016233907
0.0058631523303239166042
0.0060424570118367427335
0.0061178424824427030462
0.0061394147676575834896
0.0061677221605412656594
0.0062625327100513652687
0.0066123565170155204629
0.0071118615927475660118
0.0074427138342316604205
0.0076157245409716571583
0.0076882135502602368463
0.0077145337321287118029
0.0077287814991360411984
0.0077481242360791157883
0.0077923569063924778486
0.0079329582495643018863
0.0082743531570903874894
0.0085629632672401881366
0.0087233800930881337521
0.0087732362749210635738
0.0087720400501342978006
0.0087326930846246177825
0.0086748651813478711015
0.0086615155545885363919
0.0086770235564664725814
0.0087854703531579647624
0.0092161302931615864814
0.0099124589266692438028
0.01044049220051933638
0.010761564898400046569
0.01090558037179574849
0.010965582261077726905
0.0110484559515969024
0.01126889786776451817
0.01194355562129176436
0.012713483387228203744
0.013150754510486927645
0.013290708117737718916
0.013288141394848766372
0.013173904642842571011
0.012972132281660570668
0.012920182960380503095
0.012970858752725692581
0.013342170717358554921
0.014393433960765540658
0.015176855402343730761
0.015516794146055839718
0.015596029236900343928
0.015609574926190181166
0.015653475055119204368
0.015852181761643584917
0.016073344535631924057
0.016124188459246843047
0.016084729879457099894
0.015824269587397639392
0.015351856186668476345
0.015111753921145438043
0.015050125942313231919
0.015056196523760612127
0.015120979134078246439
0.015292879216844523782
0.015438013787013976988
0.015548668832448861443
0.015630885437249681519
0.015681107769097504118
0.015700421025664858254
0.015700062644555437541
0.015680061164738082896
0.015584146660463784467
0.015447364574675539681
0.015369633699944726044
0.015341379817437062957
0.015340044833018137704
0.015350199714358390285
0.01538280541258510957
0.015405438635278569798
0.015427114345132792589
0.015472867558367010138
0.015579631205642485714
0.015718124236784120074
0.015855857382510364639
0.015980873775920396984
0.01609236392918471717
0.016201738248973852202
0.016320717901397847199
0.016453118739028414069
0.016593942162517361094
0.016730825071866819304
0.016852685048976037696
0.016955448218560112417
0.0170427230977911702
0.017128843965736901406
0.01722450767093464119
0.017341413904015057224
0.017477979133617187885
0.017630551751854899034
0.017787102952349784918
0.017937616597479014158
0.018075242359210402787
0.018195246548204140058
0.018301312618065637
0.018399500403275870219
0.018499690840115101675
0.01860836990221838641
0.018731061192463691056
0.018869075567240961577
0.019020038630557387083
0.019173843343343804219
0.019324480365661197284
0.019465065026565187695
0.019589245493777912577
0.019695089001122285249
0.019781810601332681931
0.019855479398811146097
0.019923085107544584449
0.019997919760524663496
0.020088799210074698154
0.02020116400718019109
0.020336733400824827389
0.020488361080442659551
0.023381359883496599661
0.02333546691353714439
0.023277914032843741859
0.023224120622386355134
0.023173288368611041216
0.023126405309447799902
0.023082644586335139547
0.023043107064102643505
0.023006462374915780805
0.022973227578789206377
0.022941831840882727367
0.022913379413563594172
0.022886278107285929623
0.02286117112868563811
0.022836014528224722608
0.022812209148095854983
0.022788681015696577586
0.022767244893957490348
0.022746266356332457692
0.022726983813790520295
0.022707429119234501941
0.022688944713387358687
0.022669745656060582423
0.022651461066515249376
0.022632315951681417771
0.022613839603657460986
0.022594018302810655457
0.022574315693846273151
0.022552597548680674427
0.02253055265002716287
0.022506669994226385229
0.022483617156412397803
0.022460052462038419124
0.022438020185801658274
0.022415192193353070116
0.022393504286278165943
0.022370904411219898894
0.022349529784410564204
0.022326759701990113449
0.022304470556176989732
0.022280335492921365254
0.022257093086323849473
0.022232778422332722529
0.022209882793558052838
0.022185993279675322171
0.022163583074250332167
0.022140294924478703259
0.022118689974651249003
0.022095895567795589137
0.022074060209879505651
0.022050206540833301033
0.022026730613850967894
0.022001003384309426175
0.021975699232369343833
0.021948269633616908358
0.02192160760948868789
0.021893163079547039301
0.021865881296994515992
0.021837360389881623618
0.021810943002336317942
0.021784201680472257967
0.021760352378082676444
0.021735986731988395787
0.021713767063270685703
0.021689807183446978278
0.021666982866807273089
0.021641875069108765239
0.021618068773084982148
0.02159248547128108861
0.021568759168834633622
0.021543379316881081792
0.021519813927879018894
0.02149470163988441429
0.02147178563236705473
0.021447501307403207815
0.021425063764262376742
0.021400415186122269395
0.021376965005690480581
0.021351103647092105342
0.021326425080317436278
0.021299349307191250275
0.021273402518032780151
0.021245678443094592747
0.021220279137552464088
0.0211944426000732003
0.02117138299714075439
0.021147394217224509128
0.021124992497172045275
0.021100677408194191964
0.02107730175547629578
0.021051778882746865346
0.021027340197584263454
0.021001220323127459816
0.0209769468037039504
0.020951412062727093472
0.020927948836920701181
0.020903130168695754215
0.020880272296601519455
0.020855930023017631159
0.020833215133680978159
0.020808411685723685047
0.020784865850147007937
0.020759301476950136472
0.020735334713008434643
0.020709812587113834298
0.020685888238508125941
0.020660291803885757339
0.020636162661728747747
0.020610466056985816269
0.020586331338896358273
0.02056069184231289898
0.020536772276912425295
0.02051179178124887606
0.020489018504217429428
0.0204654334028016964
0.020443566132800832652
0.020419907472866927201
0.020397602004411478915
0.020372965180957876979
0.02035044542998144107
0.020325276705371472796
0.020302786084544374723
0.020277245498279243552
0.020254510175513253112
0.020228858720369093105
0.02020579120413483129
0.020180182409738654098
0.020156693590302435237
0.020130867210791880684
0.020107364099789026834
0.020081880817515287974
0.020059561533896569374
0.020034903194291703993
0.020013314727822924255
0.0199884321149459733
0.019966159581158840486
0.019940595798677188816