/*--------------------------------*- C++ -*----------------------------------*\
  =========                 |
  \\      /  F ield         | OpenFOAM: The Open Source CFD Toolbox
   \\    /   O peration     | Website:  https://openfoam.org
    \\  /    A nd           | Version:  12
     \\/     M anipulation  |
\*---------------------------------------------------------------------------*/
FoamFile
{
    format      ascii;
    class       volScalarField;
    location    "0.006";
    object      nut;
}
// * * * * * * * * * * * * * * * * * * * * * * * * * * * * * * * * * * * * * //

dimensions      [0 2 -1 0 0 0 0];

internalField   nonuniform List<scalar> 
75962
(
5.4626836405313816383e-07
6.2860426267606295272e-07
6.7549839342215669557e-07
7.2696411274527128893e-07
8.3116331737062731406e-07
9.7723705884028601513e-07
1.0782449003257124768e-06
1.1328975981522564572e-06
1.2044841397415227404e-06
1.3625013682136741895e-06
1.5227859404523586688e-06
1.6003161771038041804e-06
1.6206472654950094707e-06
1.6321914572674324922e-06
1.6630801385630712507e-06
1.7467486219850159061e-06
1.8252687253901409063e-06
1.8897711774607925359e-06
1.949484600081364047e-06
2.0041885147713656525e-06
2.0763795002798845686e-06
2.1996879347081885196e-06
2.3614621937681531481e-06
2.513901465358041143e-06
2.6217258016866596727e-06
2.6977592577057098835e-06
2.7730729825972651721e-06
2.8513160983082936007e-06
2.9124350045090763115e-06
2.9457835404738109954e-06
2.9663056105864607319e-06
3.0029414032640879611e-06
3.0811810015716627919e-06
3.1744425283392305022e-06
3.2508220663750628724e-06
3.2965788703726895468e-06
3.3241456219093456352e-06
3.3643482015321433262e-06
3.4570676696125067169e-06
3.650754266582705477e-06
3.8419625864366033812e-06
3.9744771687801131046e-06
4.038208200832357925e-06
4.0566944596376548396e-06
4.0632557714334804281e-06
4.0779456337301129646e-06
4.1154550715443906107e-06
4.1809348628992818622e-06
4.2632410772244899231e-06
4.3538512345397546621e-06
4.4417481620572960374e-06
4.5140373982541461258e-06
4.5606160503053125982e-06
4.5829139420606413718e-06
4.5971757117005321286e-06
4.6265754722689751601e-06
4.7109678382814841789e-06
4.9166073932134350417e-06
5.1092087793833255145e-06
5.2350298964880526414e-06
5.2984877247781946946e-06
5.3244254223279858769e-06
5.3349919652233584891e-06
5.3409676942436228752e-06
5.3452695486364727932e-06
5.3518768887818041817e-06
5.3687949795773247958e-06
5.413610878644254957e-06
5.5424147786012931293e-06
5.7064284922460864981e-06
5.8188887456317853929e-06
5.8693616641225427284e-06
5.8865476768050828266e-06
5.9149802313118369606e-06
6.0062905633690176949e-06
6.2619614182345348995e-06
6.5041376860011983695e-06
6.6486330976403986871e-06
6.7160982670336590974e-06
6.7379441733599334613e-06
6.7403802446132634951e-06
6.7367152544004778965e-06
6.7315986089686212306e-06
6.7271532672827198335e-06
6.7292283586049200588e-06
6.7647220840301415255e-06
6.8907151459076620124e-06
6.9945468727456832289e-06
7.0295416706032263278e-06
7.0270396309073770481e-06
7.0082991488528361508e-06
6.967705777689764659e-06
6.949037056423133232e-06
6.9460823252065265594e-06
6.9654223534347035858e-06
7.0647058628679662817e-06
7.277730557425496409e-06
7.452138751799023802e-06
7.5651219066710815992e-06
7.6184009004313532905e-06
7.6384763368446311139e-06
7.6637220954379374152e-06
7.7326229000891560846e-06
7.9479924921071050349e-06
8.2283485944215339339e-06
8.4074848079829292413e-06
8.4823084988712371207e-06
8.4894048756519726803e-06
8.4714657781370468259e-06
8.4206532072159721131e-06
8.3968446769741553101e-06
8.4008399900888424338e-06
8.4782756759176955674e-06
8.7345053459789449759e-06
8.9420580882620583497e-06
9.0301219125031435245e-06
9.0457572608874586904e-06
9.0391599382439886257e-06
9.0331922227803631144e-06
9.0382684855184657546e-06
9.0522779282962261688e-06
9.0470321724954466956e-06
9.0225820788735800365e-06
8.9294260393461922305e-06
8.8209375260463747083e-06
8.7734875824357103584e-06
8.762613377527021677e-06
8.7688381862984122886e-06
8.820956343526644897e-06
8.8813679053203852784e-06
8.9115646658307000159e-06
8.9215263258436665594e-06
8.9206619179261363096e-06
8.9150538260114328226e-06
8.9078573033572256605e-06
8.8959639895565673074e-06
8.8681903670059253765e-06
8.8318391161699443437e-06
8.8037892796605739568e-06
8.7842870841411284567e-06
8.7719724573850929128e-06
8.7649288960969746137e-06
8.7598452693578631259e-06
8.7591046237802495456e-06
8.7713615016245872661e-06
8.8098751620588463748e-06
8.8561366706853411748e-06
8.9040441399136901275e-06
8.9487390272429931956e-06
8.9846472366276956253e-06
9.0084302667144243329e-06
9.0198289694881577614e-06
9.021977041286137277e-06
9.0198363247315252548e-06
9.0189441422211700329e-06
9.0243132014978894256e-06
9.0494508404564092004e-06
9.0939095885556975822e-06
9.1363706228311551482e-06
9.1737058587823973565e-06
9.2049300125520433236e-06
9.2333487022902409493e-06
9.262020685391468108e-06
9.2942830546665444562e-06
9.3298779074054736469e-06
9.3670125150543990329e-06
9.401580402929449854e-06
9.4291494530318211142e-06
9.4475401323188707027e-06
9.4567035740565124144e-06
9.4597997656016537878e-06
9.4610199211042708966e-06
9.4660454025880922562e-06
9.4792747444836048811e-06
9.5034829198785723478e-06
9.5383378549284913669e-06
9.5815897483110605256e-06
9.6291617818517706362e-06
9.6758726745314925857e-06
9.717698769258808613e-06
9.7512371215498685876e-06
9.7754390175546304088e-06
9.7912140472790484217e-06
9.8011374943251580722e-06
9.8085675610698835566e-06
9.8164124935028343824e-06
9.8272404806318755657e-06
9.842202304888647961e-06
1.0245553362755089019e-05
1.022880928693039393e-05
1.021216514246768014e-05
1.0195946858118061582e-05
1.0180205238674255278e-05
1.0165259778351101402e-05
1.0150962085652241932e-05
1.0137406343575935345e-05
1.0124255762356355263e-05
1.0111592119333648597e-05
1.0099075996754905584e-05
1.0086885383211681961e-05
1.0074815804023189037e-05
1.006320277935179023e-05
1.0051805911055889775e-05
1.0040770312207924941e-05
1.0029711972265550437e-05
1.0018842802885979257e-05
1.0007940480757256582e-05
9.99729072161774673e-06
9.9866025284456605437e-06
9.976140784837945772e-06
9.9656333875611771342e-06
9.9553050658850988767e-06
9.9446899895468163601e-06
9.93385563931925561e-06
9.9223905690270144801e-06
9.9106712245565155197e-06
9.8985645763248496421e-06
9.8866027999708242879e-06
9.874568623764177534e-06
9.8628539341600164023e-06
9.8510680948338244159e-06
9.8395060517098801179e-06
9.8277638377050864849e-06
9.8162110569168000964e-06
9.8044627998619722232e-06
9.792858727888421278e-06
9.7809067677331649424e-06
9.7689535135786058915e-06
9.7566156037727641017e-06
9.7444220143149410984e-06
9.7321172415463130974e-06
9.7202140640124758456e-06
9.7083817988253390784e-06
9.6970315749220462352e-06
9.6857130397545867584e-06
9.6746768347551285192e-06
9.6633340762531949066e-06
9.6518916449368138277e-06
9.6399291795703986467e-06
9.6278572927504875483e-06
9.6154709653673354396e-06
9.6031893701913582928e-06
9.5907321422450502851e-06
9.578356741518845107e-06
9.5657115764952409113e-06
9.5531116428389824794e-06
9.5403997242509661373e-06
9.5280769895214366064e-06
9.5159365145744263218e-06
9.5042921444639369747e-06
9.4926862779838972297e-06
9.481346317696628221e-06
9.4697851934348721374e-06
9.4582735598892033786e-06
9.4463596058258696115e-06
9.4344621637478404277e-06
9.4222554623670557881e-06
9.4102596036641132453e-06
9.3981066810842228714e-06
9.3862120231017948427e-06
9.3741505435957189329e-06
9.3623309687326985572e-06
9.350403437816189888e-06
9.3387603851846854035e-06
9.3270061839674165538e-06
9.3154201352932136676e-06
9.3035561384419479991e-06
9.291685602608766375e-06
9.2794764530777820553e-06
9.2673254066228252584e-06
9.2550695072488508105e-06
9.243152022947335726e-06
9.2313698345587841244e-06
9.2199382797042961064e-06
9.208455079939254726e-06
9.1969674345209697535e-06
9.1851560543346167601e-06
9.1732276083015893548e-06
9.1610954437886020035e-06
9.1490234216913560525e-06
9.1369192220782143715e-06
9.1249506837348830549e-06
9.1130379890326322477e-06
9.1013370716742711663e-06
9.0897449701455124789e-06
9.0783250295451555108e-06
9.0668398174301649106e-06
9.0554201013437341373e-06
9.0438286768859151151e-06
9.0323514721305043292e-06
9.0207101332857559886e-06
9.0091891773027965839e-06
8.9974839627653068575e-06
8.9858925745648839144e-06
8.974141615046362405e-06
8.9624970722664822011e-06
8.9506910234361066245e-06
8.9389448973764102187e-06
8.9271215650652306698e-06
8.9154695139215331677e-06
8.9039614393651273064e-06
8.8927001462375875556e-06
8.8815995792204539529e-06
8.8706275630631424589e-06
8.859637595049912217e-06
8.8486847253239350942e-06
8.8375607584490528716e-06
8.8265416662018228103e-06
8.815335207092022963e-06
8.8042898231361958695e-06
8.7930536726235104935e-06
8.7818502939877612668e-06
8.7705051267330124581e-06
8.7590747500134405213e-06
8.7476147908085746628e-06
8.7360930944273584343e-06
8.7246727034240791781e-06
8.713372499061739976e-06
8.7022249814366592178e-06
8.6911836064033680339e-06
8.6801403287852366874e-06
8.668963139916674874e-06
8.6577988434483782351e-06
8.6464249428195187527e-06
8.6352565603556726378e-06
8.6239596559083232037e-06
8.6129633525902654932e-06
8.601912715791952332e-06
8.5911417452560351078e-06
8.5802247522529998788e-06
8.5695565614709151141e-06
8.5586282273209641857e-06
8.5480180134994158736e-06
8.5371756557531669463e-06
8.5266667655513130627e-06
8.5159615470875838731e-06
8.5056515634789034208e-06
8.4950728936773756557e-06
8.4850025063177809888e-06
8.4744160799339538886e-06
8.4643260445125307766e-06
8.4536282281962526162e-06
8.4433551778184903232e-06
8.4325569083636120991e-06
8.4221603442310008687e-06
8.4112593923805722388e-06
8.4009141529084267324e-06
8.390103913903460212e-06
8.3799029772298797806e-06
8.3692689056488575497e-06
8.3591489416348661379e-06
8.3485423107061926962e-06
8.3384918759502660833e-06
8.3279105544371633218e-06
8.3179570397528144392e-06
8.307461965426706047e-06
8.297589138792333424e-06
8.2870268596499806251e-06
8.2770425388985770742e-06
8.2662494899783645584e-06
8.2561726925342282095e-06
8.2453648951978449782e-06
8.2354678823961347889e-06
8.2248951674279385766e-06
8.2151998125736406587e-06
8.2047774842023593991e-06
8.1951035773565122043e-06
8.1846563493660331253e-06
8.1749090207452462385e-06
8.1643981885954234148e-06
8.1546105380155605585e-06
8.1441475315553133471e-06
8.1344382537777830828e-06
8.1240578361981775533e-06
8.1145767357640560986e-06
8.104360573015614085e-06
8.095071366412089474e-06
8.0850551438879924042e-06
8.0759153062140734777e-06
8.0660091680221767535e-06
8.0570655949109634285e-06
8.0472966032735353947e-06
8.0385361814901102554e-06
8.0288593181967237507e-06
8.0201105956228234146e-06
8.0103590908915377899e-06
8.0014407343690394596e-06
7.9915310465224709079e-06
7.9824596511697391323e-06
7.9724474236324988503e-06
7.9633445588706402985e-06
7.9533558696203710128e-06
7.9442856239603036448e-06
7.9343601567346923385e-06
7.9253418046052336081e-06
7.9155069882276462494e-06
7.9066595849118724402e-06
7.8970502141943874823e-06
7.8884167790356708077e-06
7.8790272626661883148e-06
7.8705403984468781458e-06
7.8612155865835394288e-06
7.8527550251169585483e-06
7.8433650164811243369e-06
7.8347552276308805581e-06
7.8251558344367925916e-06
7.8163782278019031742e-06
7.8065838973875746051e-06
7.797866708104248852e-06
7.7881292862333022638e-06
7.7796595969246082472e-06
7.7702188161009521576e-06
7.7620660463378082257e-06
7.7529447533140594367e-06
7.7449348210821945484e-06
7.7359350845175021044e-06
7.7278599694811385385e-06
7.7187559078793251669e-06
7.7106023839687754971e-06
7.7014585864177305928e-06
7.6932632582631714583e-06
7.6840258542018661765e-06
7.6757895259060773542e-06
7.6664769033796519851e-06
7.6582580148134061257e-06
7.6490546618183226856e-06
7.6410004678665073829e-06
7.6320054354225341976e-06
7.6239808170163269368e-06
7.6151395984057008426e-06
7.6072043425148008566e-06
7.5984963372989745926e-06
7.5908051301264637111e-06
7.5823144065707301383e-06
7.5749263329899395916e-06
7.5665528098610826039e-06
7.559340837103270678e-06
7.551071178406303768e-06
7.5437891694026748887e-06
7.5355229547648005964e-06
7.5281977935718185163e-06
7.5198352802925986973e-06
5.3550211849900082484e-07
6.4314476710026774487e-07
7.2759157099577420573e-07
8.0771250748651641472e-07
9.1780063502410189913e-07
1.0561422891923526305e-06
1.1626946040342976504e-06
1.2161484406149207734e-06
1.2655876816465712688e-06
1.384979876043321002e-06
1.5638299912972022769e-06
1.6659723379712646644e-06
1.7023020893448868791e-06
1.7176186715574825104e-06
1.7434582036750240762e-06
1.8153407417263973399e-06
1.9417386690348883982e-06
2.0179473165427663169e-06
2.0569055472767625695e-06
2.1101165999999000498e-06
2.2226937285630143598e-06
2.3745650134789714318e-06
2.5140488521235776145e-06
2.615133612088687862e-06
2.6937099974710603144e-06
2.7823851048520312852e-06
2.8855306071977007816e-06
2.9740454918136138788e-06
3.0248818555971209293e-06
3.0520738714541876942e-06
3.0919395799902853756e-06
3.1621583146664152011e-06
3.2527987582475715888e-06
3.3399961217996431559e-06
3.4041231223404830654e-06
3.4401138214813310799e-06
3.4627054312795177075e-06
3.4988064229829945122e-06
3.5848703560416081771e-06
3.8091496990273702345e-06
4.0608000576877372191e-06
4.2291198721236616945e-06
4.3094178396816969873e-06
4.3312935733140194846e-06
4.3320438881166958882e-06
4.3320099137435331968e-06
4.337853496698149415e-06
4.3631437538892825213e-06
4.4419864502564482974e-06
4.5544502512258412514e-06
4.6580249739299777785e-06
4.7409588726374328455e-06
4.7935146023665977242e-06
4.8171735023103944096e-06
4.8268307110686437772e-06
4.843182374251757962e-06
4.8914107843740290259e-06
5.0521969061214358208e-06
5.2901327195344610276e-06
5.4580046207076336786e-06
5.5496759741206317607e-06
5.5863884246274268818e-06
5.5957986954238195967e-06
5.596409571929643643e-06
5.596206019840431821e-06
5.5995247435728797187e-06
5.6141540525401954179e-06
5.6642808887960477516e-06
5.8167158051828068478e-06
6.0089988446921978885e-06
6.1447109000134338952e-06
6.2108903876117323547e-06
6.2306500195319464052e-06
6.248265566998128155e-06
6.3023761626765410231e-06
6.486033485744029136e-06
6.730621547702363009e-06
6.8931411612352378165e-06
6.9789390855519415038e-06
7.013945001734457148e-06
7.0235696538405471148e-06
7.0235217758441077942e-06
7.0211369900133824095e-06
7.0199416250530437687e-06
7.0266119692410955352e-06
7.0688402472736119409e-06
7.2002291039060613132e-06
7.3102702018599204745e-06
7.3561458873032232694e-06
7.3596372319543256293e-06
7.3485158470329449467e-06
7.3181373395846842895e-06
7.2966852530488946906e-06
7.290815699202089378e-06
7.2981428234271609047e-06
7.3612198391316623782e-06
7.5770216872354514894e-06
7.813447163260000682e-06
7.9635618025231694829e-06
8.0352014757289685285e-06
8.0630672200639950638e-06
8.0955622905112693458e-06
8.1798504892260820882e-06
8.403506100896338511e-06
8.6387990305413026119e-06
8.7899110804406407991e-06
8.8505987010234516571e-06
8.8533837601057209071e-06
8.8327483309459595411e-06
8.7825935667469637823e-06
8.7626339573405148778e-06
8.7710466044616766152e-06
8.871763459621455396e-06
9.1729514108224848929e-06
9.3990152066799663119e-06
9.4947626979219265652e-06
9.5140721858336899531e-06
9.5130844458404843566e-06
9.5207302583473839123e-06
9.5664157938337112508e-06
9.6067057834687939613e-06
9.6079314691740208706e-06
9.5865845101531890521e-06
9.4956799748333397897e-06
9.3685220175169551079e-06
9.3103121374430515051e-06
9.2968628918657371759e-06
9.3029608193865163577e-06
9.3569784995772897816e-06
9.4165409602200827717e-06
9.4429089214372099326e-06
9.4490529832259139559e-06
9.4451430796315864009e-06
9.4379486447817061086e-06
9.4273525251139752602e-06
9.4040120234137605321e-06
9.3604074393332403108e-06
9.3236443463149892228e-06
9.2971716640800753425e-06
9.2797310298837730751e-06
9.2687948790092612928e-06
9.2619160989068232581e-06
9.2564709803704121573e-06
9.254334171205594412e-06
9.2629432911461067121e-06
9.3013880659463168678e-06
9.3542316064728652831e-06
9.4007216575249043548e-06
9.4358908478960533769e-06
9.4571042331478538917e-06
9.465438117085274333e-06
9.4658118869174571612e-06
9.4653143763905290772e-06
9.4706270287948351853e-06
9.4907085579387768338e-06
9.5226402620206454096e-06
9.5588805938684936743e-06
9.5947406815591360725e-06
9.6274256081146519114e-06
9.6564340819307857181e-06
9.6833720105645400603e-06
9.711439398916586925e-06
9.7434690172889090916e-06
9.7807300986119227845e-06
9.8224101263102883523e-06
9.8653336506672291363e-06
9.9044745803801232992e-06
9.9355963196714634431e-06
9.9557918665579452278e-06
9.9653919322859459097e-06
9.9668991647244979421e-06
9.9649111670205604976e-06
9.9636231104121373973e-06
9.968129274551412947e-06
9.9868733075924511503e-06
1.0021277717990083726e-05
1.0067609866415113876e-05
1.0123018127534610461e-05
1.018136326485157578e-05
1.0234949642306103644e-05
1.0277391666394097435e-05
1.0305060955948635979e-05
1.0319075128024898959e-05
1.0323169738593802099e-05
1.0322952909215500698e-05
1.032362743550868249e-05
1.0328690265625403011e-05
1.0340747367654538284e-05
1.0359596794251433159e-05
1.0807467615709593611e-05
1.078897889851183984e-05
1.0770784291479581739e-05
1.0753003104042254702e-05
1.073584952750504717e-05
1.0719277477035089554e-05
1.0703445979029174262e-05
1.0688263709854715723e-05
1.0673780068563637211e-05
1.0659744164455406726e-05
1.0646162751416785852e-05
1.0632841742314399239e-05
1.0619899985498544966e-05
1.0607151818209789926e-05
1.0594729404208745246e-05
1.0582459179994730241e-05
1.0570482397319107216e-05
1.0558604809662168838e-05
1.0546951618013625823e-05
1.053534890953453287e-05
1.0523940614586131017e-05
1.0512542212667555093e-05
1.0501309980242766351e-05
1.0490078442388277457e-05
1.047895588397508412e-05
1.0467660057754784295e-05
1.0456188236164468429e-05
1.0444305697139909426e-05
1.043216064774018812e-05
1.0419689417010723009e-05
1.0407182295660902442e-05
1.0394632803741252146e-05
1.038226585150551816e-05
1.0369928211813577234e-05
1.0357682560366709577e-05
1.0345383863123518256e-05
1.0333164117579560036e-05
1.0320911053436326906e-05
1.0308664888699624419e-05
1.0296206160832171007e-05
1.0283600602928791488e-05
1.0270809819167609322e-05
1.0258058396439980622e-05
1.0245366275620044149e-05
1.0232871012711459589e-05
1.0220522297362598404e-05
1.0208404995011103727e-05
1.0196418503738086936e-05
1.0184528144897566179e-05
1.0172504508974231311e-05
1.0160280842275000798e-05
1.0147718121348679669e-05
1.0134917099404064814e-05
1.0121884619072499907e-05
1.0108766223382726406e-05
1.0095556659548568995e-05
1.008229110297627591e-05
1.0068912943006617345e-05
1.0055502308692346116e-05
1.0042174189957308629e-05
1.0029151388664882637e-05
1.0016490663560829254e-05
1.0004200641078339501e-05
9.9920863916551315838e-06
9.9800362861903857658e-06
9.9678621258200333829e-06
9.955555120327173104e-06
9.9430632823324495651e-06
9.930503904190175643e-06
9.9178817285743765841e-06
9.9053156940169883275e-06
9.8927464826920657385e-06
9.8802655549038437272e-06
9.8678108532019166406e-06
9.8554552468444329679e-06
9.8431312918598222391e-06
9.830838727014690461e-06
9.8185138465615918768e-06
9.8061132734462535783e-06
9.793582863640086614e-06
9.7808780416144115402e-06
9.768007730599337002e-06
9.7550634671627562485e-06
9.7422247088738423142e-06
9.7296314262239032636e-06
9.7173560283458533662e-06
9.7052804960852407789e-06
9.6932710380510610351e-06
9.6811320102294021585e-06
9.6688258822792415054e-06
9.6562975865678048453e-06
9.6437025509653446321e-06
9.6310407838306953915e-06
9.6184840015142449135e-06
9.6059607275334337828e-06
9.5936118802977056507e-06
9.5813367796801172385e-06
9.5692563409303746673e-06
9.5572063548570217124e-06
9.5451980445914066622e-06
9.5331015631747150483e-06
9.5209397437619828342e-06
9.5087324614512695346e-06
9.4965179170362201141e-06
9.4842968091997419599e-06
9.4720627466162525521e-06
9.4597895687326342664e-06
9.4475149293617279787e-06
9.4351905767629704421e-06
9.4228878373021212489e-06
9.4104900896105429233e-06
9.398206258604671951e-06
9.385950975524971689e-06
9.3740173377075707207e-06
9.3621890246490177263e-06
9.3506030232499919805e-06
9.338943022246711114e-06
9.3273206738467690614e-06
9.3155754510555333889e-06
9.3038089459298671774e-06
9.2920222636191998351e-06
9.2802267054649688799e-06
9.2684281543188972298e-06
9.2566290363248044211e-06
9.2447114192277152797e-06
9.2328437277603237155e-06
9.2207517910654426287e-06
9.2087821053921199498e-06
9.196577409307800621e-06
9.184619805084001811e-06
9.1726122985859447783e-06
9.1609382832650830823e-06
9.1492237741894012824e-06
9.1376908642660899853e-06
9.1258656214274016697e-06
9.1142072881822612545e-06
9.1021762177778492919e-06
9.0905246495914098241e-06
9.0785961983833312895e-06
9.0671721023375231511e-06
9.0555133406183065836e-06
9.0442934390065767665e-06
9.0327500793274858177e-06
9.02159133205030407e-06
9.0100376045313358892e-06
8.9989300529644059826e-06
8.9874316900019203227e-06
8.9764160457084217357e-06
8.9650241723039253178e-06
8.954218381111363911e-06
8.9429869483711853527e-06
8.9324545211292607339e-06
8.9212846733509810397e-06
8.9107625231953893114e-06
8.8994705029811250623e-06
8.8887327945174899853e-06
8.877264675769040253e-06
8.8663570924840709963e-06
8.8547769532974619322e-06
8.8439376601407463453e-06
8.8324799602205215037e-06
8.8217875720477093336e-06
8.8104937505112328297e-06
8.7998544005361676077e-06
8.7885807566666692282e-06
8.7780257278240659722e-06
8.7667781520617758231e-06
8.7562936727979739031e-06
8.7450837774229348237e-06
8.7346217410273991542e-06
8.7233261471517197611e-06
8.712777042237566675e-06
8.7012430473596669134e-06
8.6905820758877131327e-06
8.679027578145011323e-06
8.6685600445496106771e-06
8.6573375831574394542e-06
8.6472130896402022457e-06
8.6362465436185131574e-06
8.626210260901976632e-06
8.615189922561342057e-06
8.6050367713566011538e-06
8.5938772315734490254e-06
8.5836100098788598506e-06
8.5724496567276512756e-06
8.5622260520043063221e-06
8.5511605746820452159e-06
8.5411696214168472322e-06
8.5302902564969988085e-06
8.5205353034857520521e-06
8.5098498661042075799e-06
8.5002601606260133193e-06
8.4897084694841211741e-06
8.4803038092574654992e-06
8.4698792888240464214e-06
8.4606430335951724386e-06
8.4503354218028041319e-06
8.4411520015265398379e-06
8.4308105138863574521e-06
8.4214999797857456609e-06
8.4109725133397094976e-06
8.4014221166465138967e-06
8.3907218814687345302e-06
8.3810820181770772058e-06
8.3703843257101398625e-06
8.3608503859097605884e-06
8.3502667200222683848e-06
8.3408476632666015419e-06
8.3303732324940846872e-06
8.3210544893707914452e-06
8.3107003084008724875e-06
8.301518965226504368e-06
8.291355497336970633e-06
8.2823558536925040105e-06
8.2723303138480372469e-06
8.2634601649701158071e-06
8.2534684715261323184e-06
8.2445025733782039405e-06
8.2343275720733070456e-06
8.2252072497392937162e-06
8.2148196197649578007e-06
8.2056833873446230167e-06
8.1953128041654691393e-06
8.1863947284570526492e-06
8.1763138922129160915e-06
8.1677324147829021879e-06
8.1580371149347629284e-06
8.149708882223653873e-06
8.1401681887631129633e-06
8.1317821494686143622e-06
8.1221099946316902387e-06
8.1135613974241586964e-06
8.1037308511088227846e-06
8.0950640057119256703e-06
8.0850941664045828614e-06
8.0763146705652209909e-06
8.066243121008856567e-06
8.057497217394558856e-06
8.047559582939746591e-06
8.0390092776719521996e-06
8.0293245957578741548e-06
8.0209000074847843414e-06
8.0114050374064077042e-06
8.0030868957976179762e-06
7.993756080030016672e-06
7.9856604946766392394e-06
7.9764939310966065405e-06
7.9686350991558445138e-06
7.9595542697981574667e-06
7.95184377644269353e-06
7.9428633835977948302e-06
7.9351094872211279629e-06
7.9261718849485029352e-06
7.9183952361024854239e-06
7.9093953928288347006e-06
5.8957199489951519957e-07
6.8666252067594183925e-07
7.7898531887135917672e-07
8.3768582838295427508e-07
9.0297832682238864832e-07
1.0488222085299066771e-06
1.2037923015804322293e-06
1.2804375923684930509e-06
1.3325262217701224462e-06
1.4491798829248715752e-06
1.6378935167043419953e-06
1.7425326997551080319e-06
1.7755097127936885684e-06
1.7905598125849884493e-06
1.8204272751841031581e-06
1.9028056150371086774e-06
2.0553883810302072469e-06
2.1648784539311923344e-06
2.2225968977242802745e-06
2.2534760377713673916e-06
2.2960560605214713695e-06
2.3931765393494637033e-06
2.5901394098537631581e-06
2.7724059244442351303e-06
2.9048116594176759286e-06
3.0038999615127140351e-06
3.0923738815174776719e-06
3.168196297584097848e-06
3.2165850918170747279e-06
3.2393657332597807251e-06
3.2608138665452519253e-06
3.3099409653740994179e-06
3.4161664014938684803e-06
3.5171136058385298752e-06
3.5832343688512905597e-06
3.6158227358105920641e-06
3.6379457449216491994e-06
3.6784402196772948528e-06
3.7775858156937953161e-06
4.0016854474241758783e-06
4.2261830466040234235e-06
4.3870032726945683928e-06
4.4736532973235991264e-06
4.5075319664252102829e-06
4.5199367730469349497e-06
4.5366523448380603685e-06
4.5730042391357132183e-06
4.6359805023314888388e-06
4.7227474007049420116e-06
4.8225764387585921974e-06
4.9191837038286600808e-06
4.9930777412337659906e-06
5.0333295384947112323e-06
5.047003380534167036e-06
5.0557759325034936284e-06
5.0793342406823192611e-06
5.1621547125457911172e-06
5.4197072803603431776e-06
5.693919422519923397e-06
5.8493440066487643644e-06
5.9079176702183885429e-06
5.915412375486674467e-06
5.9089440847645451882e-06
5.8989716998846426031e-06
5.8949033506703932928e-06
5.8970093732092760571e-06
5.9211394222287192326e-06
6.0187178680754753869e-06
6.2108899038785709648e-06
6.3638924718088102361e-06
6.4561972822955164569e-06
6.4919956058649382676e-06
6.4989537554989676408e-06
6.5093367624962425439e-06
6.5543737305676701304e-06
6.7296571658989175961e-06
6.9745925373416876167e-06
7.1303434785140910887e-06
7.2079486543250443882e-06
7.2372427675574804037e-06
7.2446168566146869466e-06
7.2462715054833227719e-06
7.2502865735835042257e-06
7.265858115338597151e-06
7.3257646988729308436e-06
7.4763812234144950153e-06
7.6005734438859295807e-06
7.666301092083622397e-06
7.6829755096015458127e-06
7.6771724063517084234e-06
7.6547163076394494452e-06
7.6239678117447058577e-06
7.6127495413128431565e-06
7.6142089329407915371e-06
7.6560580230644830721e-06
7.835302000496430577e-06
8.1204207603833088007e-06
8.3284318145366429727e-06
8.4499464736306385831e-06
8.5005840520607175878e-06
8.5180554938923678837e-06
8.5441616394129952079e-06
8.6226515109264593464e-06
8.8702123872836310405e-06
9.1457136442882236058e-06
9.295668738075469462e-06
9.338809130484362382e-06
9.3315088770423697007e-06
9.2851048098506381537e-06
9.2071937426090396409e-06
9.1822025641931153891e-06
9.1936244459002325487e-06
9.3170516858870705909e-06
9.670031759974237248e-06
9.923523370789885976e-06
1.0027521180029781136e-05
1.0046294238635013313e-05
1.0043685858894865133e-05
1.0050738690548484882e-05
1.0107090619060468128e-05
1.0170475010386509661e-05
1.0179632576833229195e-05
1.0160228454312460105e-05
1.0071058849034783547e-05
9.9125666341511475837e-06
9.8276523142762788233e-06
9.8006309239100617998e-06
9.7957501881596670062e-06
9.8098527754199108528e-06
9.8585422899884316694e-06
9.8984076151475634657e-06
9.9269703909901793414e-06
9.9463131627491312446e-06
9.9553977670113761369e-06
9.9546320532671360513e-06
9.9476115395429513886e-06
9.9344145832501442667e-06
9.8972343620655330384e-06
9.8468160819020829913e-06
9.8151171950784065195e-06
9.7992307263125932675e-06
9.7919857709368093981e-06
9.7884099883420534798e-06
9.7919932193046223566e-06
9.7924116364456518879e-06
9.7924787837455741317e-06
9.8001251791388875194e-06
9.8269679410448619995e-06
9.8636838527651701531e-06
9.8999360625925804602e-06
9.9320028200898435237e-06
9.9596767908978053662e-06
9.9865239696577084142e-06
1.0016157248260359135e-05
1.0049713669949388441e-05
1.0085623850652188644e-05
1.012011455060399923e-05
1.0149864352087009211e-05
1.0173705609297437329e-05
1.0192775087009470675e-05
1.0211390965545725877e-05
1.0232739381990411809e-05
1.0260261142886506919e-05
1.0293422137510129546e-05
1.0331076054862469091e-05
1.0369647209216113087e-05
1.0406209965997806544e-05
1.0438812495634690276e-05
1.0466143768482536033e-05
1.0489319848813676464e-05
1.0510114935417251856e-05
1.0531365197547329335e-05
1.0554905630848188973e-05
1.0582272921165198335e-05
1.0613792811115067092e-05
1.0648752422687622198e-05
1.0684291425329616148e-05
1.071873593032357767e-05
1.0750202430299802791e-05
1.0776980172149130288e-05
1.0798588921035895755e-05
1.081485689379986402e-05
1.0827474264833485414e-05
1.0838362432272843238e-05
1.0851141248459763431e-05
1.0868190033189544088e-05
1.0890944734047955671e-05
1.0919815041370428547e-05
1.0952819920358829232e-05
1.1403888979573892912e-05
1.1384812254979279796e-05
1.1362869049807420541e-05
1.1341851321617744212e-05
1.132156454893039273e-05
1.1302250173880429518e-05
1.1283707768942812335e-05
1.1266208706590755343e-05
1.1249429353734425308e-05
1.1233496209297069924e-05
1.1218024174889807074e-05
1.1203282292710140233e-05
1.1188881269927472553e-05
1.1174978404884190332e-05
1.1161073108746255537e-05
1.1147506343308553168e-05
1.1134014622271799674e-05
1.1121041635436948998e-05
1.1108189535338657805e-05
1.109576272422622346e-05
1.1083282335631287958e-05
1.107107630396287136e-05
1.1058708349440359088e-05
1.1046575048463220666e-05
1.1034243399264559459e-05
1.10220870736174361e-05
1.100961572542233633e-05
1.0997185192406441981e-05
1.0984273467761455104e-05
1.0971289090596842618e-05
1.0957861898846264903e-05
1.0944641146588083295e-05
1.0931301881399690495e-05
1.0918343833312710384e-05
1.0905202287987667245e-05
1.0892349492025634871e-05
1.0879287422457069643e-05
1.0866537011455864407e-05
1.0853461485962085728e-05
1.0840515829039312857e-05
1.0827132127189511161e-05
1.0813973348797708123e-05
1.0800560404411933639e-05
1.0787498040970869309e-05
1.0774201297058178512e-05
1.0761272860512261819e-05
1.074814259966025255e-05
1.0735434120423728075e-05
1.0722451268008163788e-05
1.0709715457021305195e-05
1.0696503581055931452e-05
1.0683395678415799005e-05
1.0669752947820802447e-05
1.0656223013439693192e-05
1.0642187097548948114e-05
1.0628345720977359337e-05
1.0614079578062057848e-05