/*--------------------------------*- C++ -*----------------------------------*\
  =========                 |
  \\      /  F ield         | OpenFOAM: The Open Source CFD Toolbox
   \\    /   O peration     | Website:  https://openfoam.org
    \\  /    A nd           | Version:  12
     \\/     M anipulation  |
\*---------------------------------------------------------------------------*/
FoamFile
{
    format      ascii;
    class       volScalarField;
    location    "0.006";
    object      p_0;
}
// * * * * * * * * * * * * * * * * * * * * * * * * * * * * * * * * * * * * * //

dimensions      [1 -1 -2 0 0 0 0];

internalField   nonuniform List<scalar> 
75962
(
99407.367924154503271
99016.170104514778359
99166.563108554837527
99473.144090379631962
99492.00819545063132
99430.262164464103989
99431.309360128885601
99473.931313347158721
99521.134681003240985
99413.733665672800271
99239.959830043560942
99195.005802645668155
99285.072903051404865
99392.546159008459654
99437.408195752694155
99418.503168343726429
99409.054787862332887
99456.205393132986501
99494.569858260190813
99454.306794748525135
99385.521252695281873
99359.496899013829534
99367.314131560589885
99391.672701737305033
99450.29541134009196
99518.839899101571064
99515.829097162932158
99426.954679228598252
99336.547555465047481
99317.063384348075488
99349.222030123186414
99377.3356477280322
99389.920309917797567
99400.547914374386892
99409.834253025750513
99428.748472324179602
99477.384139589164988
99527.271113923154189
99530.069807267718716
99486.652062827488407
99444.204281347905635
99421.407150511819054
99401.217549075736315
99380.522673030631267
99380.585552190168528
99405.892079496436054
99431.202740114982589
99436.163276277875411
99419.517918571917107
99383.413220564907533
99327.563446107422351
99264.537215966483927
99222.31532220930967
99213.547308823181083
99225.425065091389115
99237.745283562122495
99239.702721251873299
99235.211742878775112
99237.926194615036366
99256.971537685836665
99291.669060534753953
99326.258012227772269
99346.465537691154168
99335.000877531492733
99288.209772768197581
99233.076423788530519
99207.546261540366686
99221.727212974641589
99248.74827599231503
99253.711296856199624
99227.889645956020104
99189.174444825839601
99155.244364444704843
99132.820294842560543
99117.382380576615105
99096.346080029135919
99069.867607801192207
99044.849734308329062
99039.839148491548258
99060.322668928914936
99097.388000858612941
99124.738668056961615
99129.174849687973619
99116.278175979328807
99110.157136868700036
99131.516504111757968
99174.039051134575857
99208.105918205808848
99208.534912000613986
99175.910547520616092
99138.612874296435621
99123.14435159828281
99132.276352532746387
99142.926262473294628
99132.640014626769698
99101.110585279602674
99065.364232735213591
99043.948972336875158
99041.996954958798597
99053.660174839242245
99072.459633299833513
99094.219750707867206
99113.887669833478867
99123.910012443797314
99119.551116766946507
99104.582171711866977
99088.04176696993818
99075.179338287256542
99064.117594195718993
99051.295298144410481
99036.675677790539339
99026.834433551339316
99026.768971517725731
99035.148458889234462
99048.155676715890877
99068.723254674987402
99100.094740920627373
99138.345233681684476
99169.226622871836298
99177.903284928092035
99162.111018727286137
99133.194881673509371
99106.963638723376789
99091.816151619219454
99085.18363161481102
99079.135794368718052
99070.327705960808089
99063.326762512602727
99064.101577958892449
99072.767700532189338
99081.733348361158278
99083.20622878568247
99077.209115193603793
99071.903213378929649
99074.670989226287929
99084.267754194384906
99091.259362835640786
99087.627383146580542
99074.124958191678161
99059.810649615232251
99054.258755470640608
99060.398775178167853
99072.493073944933712
99081.73943880200386
99083.220631170785055
99078.204047503691982
99070.726370723015862
99062.231589742426877
99050.451293904683553
99033.483056758879684
99013.521526097305468
98995.612926767469617
98983.570551869954215
98976.081082105025416
98967.732138741645031
98953.90611675727996
98934.645714835816761
98914.197114312060876
98897.879516505097854
98888.651718136112322
98885.890683221849031
98886.128621191339334
98884.887359985397779
98877.458106710982975
98860.831589495253866
98834.606703114841366
98801.768369996440015
98767.756875032486278
98738.383842704541166
98718.238489346593269
98709.001545632767375
98709.764007987163495
98718.043364028257201
98731.391944825300016
98748.79036035334866
98772.026408137535327
98804.934704389859689
98849.465670351142762
98902.807213925290853
98956.378373394953087
98998.672400124007254
99020.922647014987888
99021.764384921480087
99008.108745220364654
98990.661867523871479
98977.171389593524509
98968.647347338483087
98961.431058070316794
98942.036464481338044
98950.751262974285055
98948.131589426571736
98936.799782252346631
98923.138415302251815
98912.597118031029822
98906.949832177822827
98904.266705279267626
98900.902331209552358
98893.965891241881764
98882.584682653658092
98867.824632018775446
98852.17207791574765
98838.566980475749006
98829.534921820348245
98826.547820065447013
98829.653434458115953
98837.810102477960754
98849.721745267772349
98865.043915505520999
98884.925323208648479
98910.858050568334875
98942.516678198284353
98976.137961547545274
99004.929711148593924
99021.965561748031178
99023.629253105886164
99011.510678626989829
98991.632753892699839
98971.634195436374284
98957.496309820038732
98951.796993648793432
98954.071521934194607
98962.283177717559738
98974.474582278737216
98989.192865980498027
99004.754096885677427
99018.85881257087749
99028.819976386861526
99032.735708024236374
99031.000285326765152
99027.029787762381602
99026.080549260994303
99033.044804510165704
99050.632861522564781
99078.338303854950937
99112.614700909296516
99147.994708928395994
99178.693277712591225
99200.445905893080635
99211.477135879773414
99212.374885163808358
99205.012241141783306
99191.430824200593634
99172.748143339005765
99149.861004529389902
99123.689825567547814
99096.18902362328663
99071.097223941105767
99052.685479753752588
99043.991321833702386
99045.572539155327831
99054.961643271439243
99067.461511753921513
99077.883135661657434
99082.50250969787885
99080.13480436152895
99072.062321341509232
99060.837072516747867
99049.073165443987818
99039.079245163607993
99032.184606350856484
99029.123797468142584
99030.516692070217687
99036.412741658947198
99045.851782411758904
99056.557419158591074
99065.210117960479693
99068.612669767840998
99065.362986624546465
99056.765392724162666
99046.632292474809219
99039.809281960711814
99040.037984393115039
99048.265568384347716
99062.098753307116567
99076.790541657188442
99087.261605556152062
99090.082801455559093
99084.611672863713466
99072.862477252449025
99058.409387730323942
99045.057066420835326
99035.721150434284937
99031.845001708206837
99033.341353143827291
99038.915065549444989
99046.621364665421424
99054.442419849539874
99060.763121173527907
99064.69265900143364
99066.031092864781385
99064.987933342665201
99061.828738158510532
99056.541952337545808
99048.760037156665931
99038.043204462592257
99024.417974007636076
99008.828612869096105
98993.227712138017523
98980.162481010920601
98972.102002235027612
98970.626330757921096
98975.885014672516263
98986.62920254022174
99000.677373012658791
99015.602326568463468
99029.42810961935902
99040.954479331587208
99049.666988968310761
99055.401721288697445
99058.002430662876577
99057.227758779277792
99052.828115250711562
99044.87400982377585
99033.967326959478669
99021.129676510041463
99007.497956753300969
98993.997433957716567
98981.082075348778744
98968.693356737087015
98956.459271965170046
98943.952879472330096
98930.967370230617234
98917.621785241208272
98904.355621041933773
98891.671882075315807
98879.890348434491898
98869.044391837858711
98858.995567950318218
98849.781488156309933
98841.750277726110653
98835.557888844094123
98831.984831470646895
98831.702670107333688
98834.97778317455959
98841.519263500056695
98850.528930005108123
98860.935369576880476
98871.647065520606702
98881.745424132619519
98890.546537190137315
98897.605709808965912
98902.617402857824345
98905.317311672362848
98905.509630504384404
98903.21076886577066
98898.807781359064393
98893.183423196082003
98887.650935740748537
98883.552108981879428
98881.800858816379332
98882.529462608508766
98885.030935113725718
98887.954416836233577
98889.800540543350508
98889.362452269575442
98886.049074880502303
98880.02134231281525
98872.00051634493866
98862.961412324482808
98853.854445414443035
98845.403413778694812
98837.880317928764271
98831.129886143244221
98824.717425917435321
98818.159970075779711
98811.029306811469723
98803.033394408936147
98794.059396684548119
98784.139349247052451
98773.313960288985982
98761.628614513305365
98749.14802292449167
98736.022265312218224
98722.57059263982228
98709.408627057084232
98697.533577411639271
98688.175939782566275
98682.63826449715998
98682.105169493850553
98687.267015561868902
98698.032892997885938
98713.509616312614526
98731.867950864951126
98750.833569420530694
98768.054960727997241
98781.538363457133528
98790.328408700006548
98794.142803368304158
98793.391241147372057
98788.954507966729579
98782.121466394281015
98774.495893336817971
98767.776850671987631
98763.511245062793023
98763.062678666174179
98767.239957066485658
98776.60500568455609
98790.437648363615153
98807.348297816497507
98825.208152728984714
98841.58733752007538
98854.19951268681325
98861.513998539521708
98863.236333524590009
98859.908243467085413
98853.067551486747107
98844.983308175869752
98837.835692697466584
98833.490123401250457
98833.226984495820943
98837.396906844063778
98845.580564360250719
98856.852372363748145
98869.844500301260268
98882.998505050258245
98894.95628816941462
98904.826419822027674
98912.122261027092463
98916.609007292223396
98918.315521953220014
98917.44469844957348
98914.272814256459242
98909.052905584030668
98901.870721608109307
98892.795658693794394
98882.224841188159189
98871.053269650044967
98860.574610125520849
98852.212086924366304
98847.340446034722845
98847.08394632958516
98851.975894654475269
98861.736825234736898
98875.314033748974907
98891.123291914991569
98907.405710590450326
98922.570857997096027
98935.547119723269134
98945.986799065460218
98954.136338775104377
98960.616709640060435
98966.268150175310438
99560.060572736925678
99339.382349528430495
99261.592950792619376
99450.014830980522675
99491.88687761426263
99367.072219278357807
99247.909377628093353
99270.782518737993087
99336.063882492831908
99293.888406258542091
99205.986682381902938
99187.741607097690576
99242.479207002994372
99323.464380326098762
99375.679499965190189
99380.512696856225375
99362.071719630272128
99385.653605135856196
99445.381792776257498
99440.643213582283352
99383.56774379563285
99357.513431456245598
99362.58968149642169
99365.55794278702524
99390.142063152437913
99453.285776796008577
99472.123802968446398
99398.45271600029082
99304.865971888080821
99284.416418366046855
99331.056940016205772
99375.884252082294552
99402.641634148079902
99427.362930116782081
99432.208484940972994
99419.483471077721333
99436.688490160566289
99490.290882736633648
99516.266524708742509
99488.692904910974903
99449.177769259753404
99430.873739520713571
99419.721770841875696
99408.52698720729677
99410.161529184289975
99422.457316924046609
99420.114700968159013
99393.012827440354158
99362.298471484915353
99340.060032691020751
99309.694988151837606
99263.55235826925491
99219.516242400131887
99200.606318103134981
99206.661207339304383
99222.055615859891986
99229.826463435645564
99225.586386480004876
99216.199057444813661
99215.985135973212891
99226.640681618344388
99248.096516013451037
99265.451417774282163
99263.484054956890759
99239.836420619001728
99209.607519466764643
99196.026964989810949
99203.171829693630571
99214.464765991418972
99215.097793907989399
99201.980994514524355
99175.147240439633606
99140.931963690760313
99111.837789779849118
99096.975665267702425
99086.958922820776934
99069.893500121106626
99047.023872901088907
99030.285807326843496
99038.184529706966714
99070.983818290522322
99115.288450399573776
99147.115032745699864
99154.919510465537314
99147.723889578497619
99145.005216191144427
99158.263785893897875
99175.631359120219713
99174.012103778484743
99145.877564545895439
99108.958529571216786
99085.843785187447793
99083.104350343579426
99085.134297703087213
99074.140307522655348
99047.793542159546632
99020.522343359101797
99006.748253452737117
99010.005902203090955
99027.247013793632505
99053.878843454469461
99083.84579634956026
99108.42878944084805
99117.572430246538715
99107.343812393592088
99085.61557730565255
99066.878442114481004
99058.825270572822774
99059.558946180317434
99058.11015271312499
99048.973543047628482
99035.74640305734647
99025.819991682947148
99023.772352675732691
99029.342414891041699
99045.009528069000226
99072.303940948258969
99107.207207026731339
99137.157764096118626
99147.921116682380671
99134.794517068861751
99106.529541078270995
99078.346531137853162
99060.499234809569316
99053.105256039911183
99050.348608302112552
99047.71875510000973
99048.07004534630687
99055.20136357138108
99067.160191432121792
99074.556756403821055
99069.647122731301351
99053.949200903298333
99037.472026675328379
99029.991471388551872
99032.476670232339529
99037.23574060597457
99036.290264717943501
99029.873137120448519
99025.545528092930908
99030.471583581660525
99043.65598103008233
99055.553616787088686
99056.428517733947956
99045.624825931809028
99030.572024392095045
99019.419374500692356
99014.168191081786063
99010.39748964383034
99003.703917103761341
98994.564971213025274
98986.603276194728096
98981.557834585924866
98976.324558782594977
98965.519093416762189
98946.704207367016352
98923.109910976956598
98901.538424686135841
98888.142280908388784
98885.241535381603171
98890.59648753561487
98897.915137273870641
98900.089044538748567
98891.462543506146176
98870.260019324938185
98839.356596637575421
98804.751142827182775
98773.188910486351233
98749.600714958753088
98736.214251904952107
98732.040122111895471
98734.642414795584045
98741.698576078531914
98752.2029598250665
98767.134215771453455
98789.475269666567328
98822.593138498414191
98867.059497096139239
98918.120639411295997
98966.023011633151327
99000.085195815932821
99013.63376439588319
99007.74655235024693
98990.730405002570478
98973.075302792844013
98961.620048308206606
98956.691619616249227
98954.404312712227693
98951.880277137912344
98952.833872440867708
98963.092437532352051
98968.519150790642016
98965.859929542144528
98956.847378841499449
98946.203749060659902
98937.975005889151362
98933.355222559446702
98930.707636329781963
98927.123831048156717
98920.388574244178017
98910.038910249859327
98896.9846490266209
98882.818736787434318
98869.487323180161184
98858.931865092163207
98852.978152987183421
98852.935541554863448
98859.260978870821418
98871.568464766925899
98888.955790545762284
98910.818576601377572
98936.781013941683341
98965.780250291951234
98995.142974790651351
99020.224153240400483
99035.854929230874404
99038.803412794397445
99029.400156819014228
99011.641859065537574
98991.553603267471772
98974.659613726296811
98964.305721305427141
98961.511292574490653
98965.764440475380979
98975.920626151651959
98990.290889173324103
99006.389951135453884
99020.994664681202266
99030.91536763701879
99034.423503970945603
99032.406020186841488
99028.460245044290787
99027.577080074930564
99034.212750604274333
99050.664187423186377
99076.436927203118103
99108.476368122370332
99142.036851921860944
99172.039135287661338
99194.357037950176164
99206.716109175336896
99208.621726131168543
99200.91695578515646
99184.88206413014268
99161.796271689163405
99133.200969019686454
99101.220007228461327
99069.368465399747947
99042.309882143643335
99024.409586586916703
99018.203431585308863
99023.253384344221558
99035.995695210600388
99050.888933536378318
99062.593897377169924
99067.852305205989978
99066.318496912397677
99059.986409153003478
99051.738719979955931
99044.356684985410539
99039.336441101113451
99037.328308781972737
99038.540617603444844
99043.066293428651989
99050.76248342647159
99060.612051054922631
99070.259644392688642
99076.578820733091561
99076.879723168589408
99070.444124509755056
99059.127411500128801
99046.87436890603567
99038.396971630907501
99037.152089834897197
99043.779129082133295
99055.845384462343645
99068.928074012175784
99078.526654372763005
99081.835618397744838
99078.640147177517065
99071.00356418202864
99062.104376491712173
99054.87777540726529
99051.23049279267434
99051.832061021545087
99056.268288155595656
99063.353575101224124
99071.526599591394188
99079.233690434688469
99085.171746684587561
99088.470812631290755
99088.878355707551236
99086.654323968978133
99082.182585587477661
99075.677187021952705
99067.0945003417728
99056.320837767518242
99043.639434133758186
99030.14874776621582
99017.720335104546393
99008.541335005560541
99004.420233704426209
99006.077595145063242
99012.82339524111012
99022.889603551026084
99034.145369001751533
99044.876329044796876
99054.176168021920603
99061.856339583348017
99067.986876219278201
99072.350216354170698
99074.183068360332982
99072.403072059285478
99066.13461006921716
99055.287846258492209
99040.812033259469899
99024.439260044397088
99008.1341450974287
98993.449520803580526
98981.056035692003206
98970.66107457918406
98961.333981701114681
98952.028685714525636
98942.034772151571815
98931.17117257026257
98919.74441254613339
98908.339567968054325
98897.530154060194036
98887.709387493872782
98879.090697792998981
98871.848790562580689
98866.235335779652814
98862.608601680083666
98861.353251706124865
98862.754182739634416
98866.891175835582544
98873.574841667723376
98882.355864333963837
98892.564949544190313
98903.446240873963689
98914.202125827316195
98924.007786854635924
98932.050650653342018
98937.605363117152592
98940.200356449451647
98939.742584385880036
98936.63715013685578
98931.850205495677073
98926.705983851585188
98922.54864917199302
98920.384299558761995
98920.532942870471743
98922.488035627146019
98925.026780375541421
98926.618144221894909
98925.882776663260302
98922.007680926588364
98914.880963970383164
98905.091651299357181
98893.708813933029887
98881.968983280006796
98870.958373524481431
98861.403778701787814
98853.569585536039085
98847.259879789751722
98841.947817153370124
98836.909329087284277
98831.446086641168222
98824.946696120678098
98816.97999340367096
98807.375624026011792
98796.19955260909046
98783.654160078673158
98770.003226953514968
98755.591987758452888
98740.914257790325792
98726.600129401995218
98713.545311029927689
98702.904739255769528
98695.993874814055744
98694.060272796006757
98697.95617661641154
98707.823920142298448
98722.957145847452921
98741.867771581353736
98762.231767899269471
98781.464407408158877
98797.386196502135135
98808.415318722065422
98813.896324841844034
98814.042209662991809
98809.792065546484082
98802.581962786760414
98794.0231495701737
98785.829588155364036
98779.507075795438141
98776.184429463319248
98776.451827316122944
98780.572816908505047
98788.279808929743012
98798.806823975246516
98811.124037500703707
98823.60934432806971
98834.614776082744356
98842.581923205492785
98846.674794164995546
98846.848893005575519
98843.546185360028176
98838.02248922738363
98832.069753317133291
98827.514544834135449
98826.010366573987994
98828.626150508935098
98835.53681618081464
98846.235800255206414
98859.736500956612872
98874.57508922139823
98889.00738559558522
98901.440098758233944
98910.744945591955911
98916.241178409458371
98917.766481590762851
98915.654817943825037
98910.428285537826014
98902.679623259726213
98893.114651795011014
98882.463266013044631
98871.372687813083758
98860.462652630638331
98850.571471786592156
98842.816465079915361
98838.328748682310106
98837.922438779933145
98841.909028196168947
98850.035864696183125
98861.492888414097251
98875.113888092673733
98889.718458356539486
98904.337008318892913
98918.208693270629738
98930.825838096541702
98942.062350644613616
98952.015614143572748
98960.72567888328922
99590.370577271751245
99513.886663036377286
99603.428125883685425
99561.816374232264934
99369.773620299325557
99255.879254016952473
99254.176418219140032
99251.327978334898944
99197.753446021088166
99168.753500932929455
99205.975182767069782
99229.708668936465983
99214.958818357787095
99215.522034665526007
99245.492710805890965
99257.57123291491007
99238.065662155204336
99261.898557698819786
99346.617590340421884
99394.519642619707156
99372.030978122391389
99356.370755162031855
99356.303709524509031
99334.842140971435583
99328.36311377461243
99378.177688835741719
99421.166747372713871
99385.11893414381484
99316.709644757342176
99300.04332697247446
99331.002490837607183
99364.186231478539412
99403.475985040466185
99449.166070154387853
99454.351206072067725
99414.065572806153796
99402.071676822102745
99444.7905597469653
99478.848197065948625
99466.702756902799592
99445.736579555814387
99444.894247494696174
99443.043601675410173
99429.699785014730878
99421.628170318959747
99416.00349504587939
99391.25916345587757
99348.015739728260087
99314.415612187352963
99303.568820212516584
99293.852320963764214
99264.542274074570742
99225.938839742768323
99207.367377678368939
99216.75863720360212
99233.287116421415703
99234.439067124869325
99215.349540791095933
99184.525528378697345
99158.30680107162334
99146.310255786767812
99155.840780880476814
99174.993164334839093
99191.477209478296572
99199.868296419721446
99202.492222837507143
99201.265679040559917
99194.26994859331171
99182.654984641732881
99172.29898660760955
99162.673860753726331
99142.734858994372189
99112.850681439129403
99088.908273098917562
99083.722677787081921
99087.406262184827938
99077.031777038049768
99051.138996118374052
99027.085603485640604
99029.563872670230921
99069.682419251243118
99129.763635332055856
99177.125670348992571
99186.901033606030978
99161.393213706207462
99127.091220407775836
99109.608654204086633
99113.404291438273503
99118.62655941619596
99105.57768078398658
99074.440115414574393
99043.673623189941281
99025.482438701408682
99016.983967947104247
99008.224567073440994
98996.318844710593112
98987.234555236413144
98986.771844811708434
98998.266727465743315
99019.0911730495136
99046.512364135851385
99074.001948373173946
99091.678373407237814
99093.755561037978623
99082.366005915828282
99065.927543357829563
99054.922170934136375
99055.010567194607574
99064.157080400545965
99070.416678934489028
99065.647256898402702
99051.344156234481488
99035.353301255279803
99026.050909530385979
99026.197154791210778
99035.309833451756276
99053.256578490021639
99077.147760186111555
99098.987185922902427
99107.976865482458379
99098.308226338311215
99074.103761676087743
99047.429513982628123
99028.698659548419528
99020.290389866306214
99018.852045110892504
99021.429933821578743
99029.392716110029141
99043.779529795661801
99059.087714933732059
99063.925388001895044
99051.398874408914708
99025.870854658802273
98999.323841066958266
98982.706654769106535
98978.092669760138961
98979.874664186078007
98981.800738767720759
98983.768842023986508
98991.455604363232851
99007.951270237856079
99026.894092547154287
99036.553314604301704
99029.281442014165805
99009.304792128750705
98988.428879390601651
98975.806077903325786
98972.257173617894296
98972.883467278268654
98973.367248666399973
98973.707255912653636
98975.217948191246251
98976.28355488863599
98972.226063115813304
98958.703803827113006
98936.221568778608344
98910.781237083108863
98890.367415506625548
98880.67731600231491
98883.327833986069891
98895.295597205738886
98909.322602534637554
98916.564821856867638
98910.68182582820009
98889.947810223908164
98858.754160688724369
98824.513807255512802
98794.854622988888877
98774.616538724629208
98764.910100880020764
98763.376929377307533
98766.459515424037818
98772.128738611078006
98780.861815564712742
98794.709269544706331
98816.846570089095621
98849.074894272183883
98889.463940204354003
98931.718488265396445
98967.439484041256947
98989.300805059232516
98994.206573658957495
98985.327791444724426
98970.284823106689146
98956.914845035862527
98948.857761131628649
98945.681485429449822
98945.192706325891777
98946.302061175054405
98979.456493796722498
98983.776197523082374
98986.627957060845802
98984.998912294133333
98979.041944141441491
98971.213861779891886
98964.308420152694453
98959.622765249892836
98956.710303659696365
98954.164042632110068
98950.502037063328316
98944.835038510573213
98936.845371079733013
98926.415198000206146
98914.041620367308496
98901.213772499380866
98890.586705288427765
98885.44871886789042
98888.479365818478982
98900.631753264242434
98920.478944964415859
98945.044852672101115
98971.225093576111249
98996.570049504225608
99019.307717195202713
99037.514616644868511
99048.698857325725839
99050.746777165986714
99043.217157794031664
99028.034948737171362
99009.165523646661313
98991.244506723320228
98978.09774085135723
98972.067818369338056
98973.947176681729616
98983.064292168230168
98997.475844512693584
99014.133050776901655
99029.300092404271709
99039.721927675593179
99043.968960892481846
99042.981499224537401
99039.773657997429837
99038.48736720024317
99042.946573340683244
99055.301809132724884
99075.481376923096832
99101.355349698002101
99129.302793480237597
99155.13458893558709
99175.077122468748712
99186.56834867609723
99188.416768510767724
99180.599324101000093
99163.783297233167104
99139.238991724821972
99108.890607073393767
99075.669503572178655
99043.80304290218919
99018.118772097834153
99002.583953579567606
98998.948909851169446
99005.906292064712034
99019.20304846878571
99033.348891078261659
99043.663056972363847
99047.828372224772465
99046.374791083217133
99041.683179662897601
99036.817243866826175
99033.938835183202173
99033.796115487930365
99036.262535421163193
99041.134895315553877
99048.233115972951055
99057.077012783222017
99066.408356919928337
99073.959702658001333
99077.218889507654239
99074.372849030449288
99065.382986224765773
99052.552704990812344
99039.602216118597426
99030.459373638383113
99027.838798254393623
99032.040511329716537
99040.911673691894975
99051.045318702395889
99059.250011358453776
99063.664554793140269
99064.390799713306478
99063.003007956736838
99061.680385776533512
99062.23347605613526
99065.329872462447383
99070.725750779296504
99077.719460914027877
99085.36731789651094
99092.739947583235335
99098.932685938707436
99103.019280383625301
99104.385879080291488
99102.914135832092143
99098.916108112854999
99092.868291823455365
99085.193749340905924
99076.202749331845553
99066.289310624881182
99056.141746563051129
99046.9912089791178
99040.444281570162275
99037.919254330947297
99040.041259770892793
99046.267008496812196
99054.913583995512454
99063.764488267916022
99070.984282700897893
99075.78976764199615
99078.54177873043227
99080.232687435302068
99081.635732844850281
99082.62958239618456
99082.015786746298545
99078.091312504620873
99069.504415064002387
99056.023705700485152
99038.833549046903499
99020.201357606740203
99002.742827922178549
98988.462786912103184
98978.163140592776472
98971.291966149350628
98966.331816586229252
98961.492957343274611
98955.372903882729588
98947.382302914847969
98937.774087081503239
98927.412025575526059
98917.466569904077915
98908.967556909628911
98902.549710809063981
98898.400128410154139
98896.484086419994128
98896.606119249976473
98898.486469572759233
98901.842555094553973
98906.524999120345456
98912.498377164345584
98919.744545454785111
98928.19186810827523
98937.580823904732824
98947.430190461993334
98957.003072037186939
98965.400406770626432
98971.747182251070626
98975.435570829897188
98976.382986085096491
98975.057133572554449
98972.370347030315315
98969.441947206447367
98967.262177217184217
98966.418840300684678
98966.895052800085978
98968.00916680037335
98968.623148959813989
98967.464696711205761
98963.456840492246556
98956.048875702777877
98945.329228458489524
98931.982863828088739
98917.158186710352311
98902.20703406802204
98888.370344526643748
98876.607895445791655
98867.421291078266222
98860.779961913038278
98856.109964870047406
98852.453222446172731
98848.693487843760522
98843.827080465300241
98837.105028269434115
98828.151253553733113
98817.040525931195589
98804.183737774583278
98790.15609903933364
98775.55143247077649
98760.946418027408072
98746.948409264907241
98734.247204897837946
98723.739433598690084
98716.547023964856635
98713.869761451031081
98716.616908102907473
98725.109164831897942
98738.873163176423986
98756.643385878123809
98776.498158051312203
98796.126634077329072
98813.028761624882463
98825.484619892347837
98832.671226323684095
98834.539245975814993
98831.967097071741591
98826.138802203116938
98818.544699791731546
98810.40174001037667
98802.892841737673734
98796.612168356848997
98792.178656913427403
98789.796224195233663
98789.852552914933767
98792.577232275900315
98798.046005582349608
98805.845210990373744
98814.95568135198846
98823.922120964009082
98831.151435362917255
98835.552279389317846
98836.640421710282681
98834.675800012584659
98830.756516734239995
98826.575249686167808
98824.093014665515511
98824.99911460178555
98830.175294900604058
98839.554900971925235
98852.255065598583315
98866.807009973141248
98881.478714891854906
98894.490896870309371
98904.301084246602841
98909.901240019098623
98910.995889148645801
98908.011549365124665
98901.745818525218056
98893.073563424914028
98882.913519358931808
98872.222753288573585
98861.854753063045791
98852.447537483283668
98844.496996035682969
98838.561334913712926
98835.288015421800083
98835.177456924779108
98838.324570595781552
98844.4506972063391
98853.08289036322094
98863.621555872217868
98875.44147153267113
98888.055515825108159
98901.189928414431051
98914.584016631226405
98927.778636584131164
98940.131430659122998
98950.906632358048228
98959.335156670102151
99798.05748373035749
99250.93991969707713
99233.561192188586574
99154.127510944832466
99080.800659410975641
99123.019059521437157
99259.499163962464081
99343.594457492523361