/*--------------------------------*- C++ -*----------------------------------*\
  =========                 |
  \\      /  F ield         | OpenFOAM: The Open Source CFD Toolbox
   \\    /   O peration     | Website:  https://openfoam.org
    \\  /    A nd           | Version:  12
     \\/     M anipulation  |
\*---------------------------------------------------------------------------*/
FoamFile
{
    format      ascii;
    class       volScalarField;
    location    "0.006";
    object      pMean;
}
// * * * * * * * * * * * * * * * * * * * * * * * * * * * * * * * * * * * * * //

dimensions      [1 -1 -2 0 0 0 0];

internalField   nonuniform List<scalar> 
75962
(
98756.821169672097312
98757.39593531715218
98757.258561073627789
98757.052186986213201
98756.88448530898313
98756.692341329180636
98756.47269164044701
98756.195129786559846
98755.832860951151815
98755.414184910230688
98755.021439733347506
98754.650720694480697
98754.243888184515527
98753.771483343560249
98753.247969275500509
98752.709772102738498
98752.176242529531009
98751.619169440135011
98751.017307518006419
98750.403876629163278
98749.822522357862908
98749.271494602464372
98748.727219047723338
98748.183680101734353
98747.629663095140131
98747.045248066628119
98746.441600054546143
98745.869307984379702
98745.35517440046533
98744.874753422292997
98744.392266644936171
98743.899092408551951
98743.405148477278999
98742.911841567867668
98742.416428633368923
98741.921753354443354
98741.419411411945475
98740.899734289632761
98740.375126144295791
98739.874599215676426
98739.40803315496305
98738.962999775627395
98738.531560914503643
98738.115622434634133
98737.710135827132035
98737.30023901326058
98736.877751053616521
98736.446999652194791
98736.018125342263374
98735.598808831928181
98735.197679571690969
98734.82208045644802
98734.469606772690895
98734.125530887380592
98733.77575046455604
98733.417894075988443
98733.05828274054511
98732.706083604120067
98732.3643326144811
98732.028505933005363
98731.688308090233477
98731.338480865291785
98730.980668010932277
98730.624796748947119
98730.287971171885147
98729.981830141841783
98729.700763663480757
98729.42312537842372
98729.132187836323283
98728.83145698561566
98728.537033104570583
98728.262789795058779
98728.012014110427117
98727.778172645717859
98727.55304204809363
98727.334045882380451
98727.124343130490161
98726.926815093596815
98726.736964090800029
98726.543189358213567
98726.333351010209299
98726.104609823276405
98725.866597726169857
98725.632766743467073
98725.408216667579836
98725.184672315372154
98724.94821563232108
98724.693442330943071
98724.430518967739772
98724.177396557817701
98723.944843733144808
98723.727826231726795
98723.512218916483107
98723.289552736503538
98723.064597329357639
98722.848635533708148
98722.648497906586272
98722.461643127986463
98722.27921125361172
98722.093317336388282
98721.899710002035135
98721.697081512131263
98721.485669512039749
98721.268685742674279
98721.05294328846503
98720.844846622741898
98720.647273705661064
98720.459117009784677
98720.278105719859013
98720.104661115328781
98719.940155702657648
98719.784033084535622
98719.632306880390388
98719.479923721592058
98719.323421869659796
98719.160854678048054
98718.989036157348892
98718.804257341704215
98718.606299330625916
98718.402322542213369
98718.203778034672723
98718.019065717817284
98717.849547002333566
98717.690520837742952
98717.535841873817844
98717.383003996568732
98717.233196582805249
98717.087080451223301
98716.942326563672395
98716.794523121017846
98716.641153197895619
98716.483681820041966
98716.32584993907949
98716.169398324462236
98716.011578390316572
98715.847626034243149
98715.67595022401656
98715.500540481109056
98715.327827088534832
98715.161164158897009
98714.99838553549489
98714.833943059566082
98714.663320408362779
98714.485927020927193
98714.304726445509004
98714.123314764932729
98713.943642109341454
98713.766220306089963
98713.591534949780907
98713.421159176941728
98713.256562738562934
98713.097582924950984
98712.941643583137193
98712.785666346258949
98712.628587530125515
98712.471802062078496
98712.317546480335295
98712.167036945029395
98712.019235808766098
98711.870806226943387
98711.717485232686158
98711.556065347918775
98711.385612518090056
98711.207935770216864
98711.027482830206282
98710.850041002369835
98710.68107205972774
98710.524063742894214
98710.379832067730604
98710.246419624934788
98710.12021485567675
98709.997357693631784
98709.874806821433594
98709.750699329422787
98709.624373209298938
98709.495255443296628
98709.361349231068743
98709.219365092401858
98709.065760503668571
98708.898635563469725
98708.720183052530047
98708.53730232079397
98708.359232715563849
98708.193805412767688
98708.04464425345941
98707.911004207388032
98707.789950147911441
98707.679268521213089
98705.7157220877707
98705.689479686363484
98705.65859095029009
98705.627149352105334
98705.597306767696864
98705.568636837633676
98705.539258089193027
98705.507723150847596
98705.474255901630386
98705.440732146947994
98705.409810771670891
98705.383991723443614
98705.364842799041071
98705.352498640815611
98705.34579537283571
98705.342744366891566
98705.341146627019043
98705.339010713491007
98705.334712520241737
98705.326904830537387
98705.314135162407183
98705.294363662193064
98705.265314057513024
98705.225539657185436
98705.175719508944894
98705.119482921611052
98705.062830743379891
98705.01218061108375
98704.972143159495317
98704.944220794131979
98704.926979696145281
98704.917136880219914
98704.91085926577216
98704.904775839866488
98704.89641901156574
98704.883997305951198
98704.866276472312165
98704.842871647633729
98704.814604102648445
98704.783584826654987
98704.752615000703372
98704.723978741836618
98704.698302261196659
98704.673999444406945
98704.647493983065942
98704.614288373864838
98704.570404168756795
98704.513662581928656
98704.444181136699626
98704.364096716104541
98704.276789524927153
98704.185873394788359
98704.094574620772619
98704.005438738007797
98703.920368952298304
98703.840839376454824
98703.76798212279391
98703.702541554084746
98703.644336403536727
98703.591659643687308
98703.541323685349198
98703.489439738768851
98703.432527267548721
98703.368698349688202
98703.298103571869433
98703.222611850957037
98703.144955651107011
98703.067767929998809
98702.992777585837757
98702.92061575887783
98702.850877585340641
98702.782439781993162
98702.713924175157445
98702.643871307183872
98702.570938805496553
98702.494111328938743
98702.413056957142544
98702.328536176253692
98702.242527446374879
98702.157770574995084
98702.076922645661398
98702.00155703771452
98701.931328683291213
98701.864014656210202
98701.796374678291613
98701.725483914138749
98701.649996728912811
98701.570681092707673
98701.490116696091718
98701.411866407681373
98701.339362408703892
98701.275049050309462
98701.219917024107417
98701.173552716179984
98701.13451217765396
98701.100749867924605
98701.070192827362916
98701.041168804236804
98701.012662034656387
98700.984339491435094
98700.95642472030886
98700.929482958235894
98700.904198143733083
98700.881291052952292
98700.86146120322519
98700.845445899220067
98700.834096208040137
98700.828291456666193
98700.828611293312861
98700.834910524295992
98700.846143534101429
98700.860420097174938
98700.875283959787339
98700.88820164410572
98700.897188363276655
98700.901236175792292
98700.900283961978857
98700.894982112236903
98700.886367441242328
98700.875580497799092
98700.863628729202901
98700.851327034150017
98700.839446431855322
98700.828777071306831
98700.820151080697542
98700.81435585176223
98700.81197912695643
98700.813300892201369
98700.818371332425158
98700.827180919164675
98700.839801673879265
98700.856493384402711
98700.877603481450933
98700.903439221190638
98700.934104555228259
98700.969426337789628
98701.008933149743825
98701.05193175104796
98701.097671454845113
98701.14550739088736
98701.194989639887353
98701.245688947761664
98701.297047044106876
98701.348229182389332
98701.398092049552361
98701.445289313021931
98701.488465460817679
98701.526499763829634
98701.558687747834483
98701.584762614089414
98701.604828358802479
98701.619216537816101
98701.628418614214752
98701.633007836819161
98701.633644385132357
98701.631085262401029
98701.626174722012365
98701.619750886617112
98701.612497017791611
98701.604769312776625
98701.596508935515885
98701.587277850398095
98701.576342829415808
98701.562890283297747
98701.546242534837802
98701.526071541811689
98701.50251386470336
98701.476179900142597
98701.447907582391053
98701.418502681917744
98701.388571417191997
98701.358461801559315
98701.328274840547238
98701.297958624054445
98701.267449499631766
98701.236777583850198
98701.206102315991302
98701.175671674005571
98701.145784869178897
98701.116758465301245
98701.088878068927443
98701.062402848212514
98701.037648035155144
98701.014995440040366
98700.99482403168804
98700.977438195419381
98700.963022003314109
98700.951620757652563
98700.943081358549534
98700.93691042716091
98700.9322252694692
98700.92783818305179
98700.922381076277816
98700.914561098383274
98700.903374784029438
98700.888370525906794
98700.86983944135136
98700.848756272971514
98700.826642349216854
98700.805276142898947
98700.786320345883723
98700.771122440273757
98700.760541260926402
98700.75500787346391
98700.754521753202425
98700.758734862305573
98700.766911688042455
98700.778042300342349
98700.790917491278378
98700.804351856611902
98700.81749599192699
98700.830005198193248
98700.842191509829718
98700.855025627359282
98700.870105903784861
98700.88936779028154
98700.91473377305374
98700.947848140858696
98700.98977011378156
98701.04085039452184
98701.100737526343437
98701.168481735076057
98701.242856604570989
98701.322693734080531
98701.407063460515928
98701.495483353792224
98701.588012242704281
98701.685216120313271
98701.788030196592445
98701.897567286738195
98702.014897677843692
98702.141060429683421
98702.277118761150632
98702.424076527488069
98702.58285981498193
98702.754337800550275
98702.939357677430962
98703.138694232809939
98703.352991610343452
98703.582679160026601
98703.82792260023416
98704.088610260747373
98704.364388237401727
98704.654771082481602
98704.959306331162225
98705.277758759402786
98705.610236799388076
98705.957261801537243
98706.319781024198164
98706.698999586995342
98707.09620128593815
98707.512641936191358
98707.949440157113713
98708.407545047535677
98757.915333243392524
98758.085044657011167
98757.16085666816798
98757.085539567226078
98756.983478871028638
98756.721687600511359
98756.445052105584182
98756.171385412744712
98755.828225805118564
98755.430482230920461
98755.035368328623008
98754.646302407243638
98754.233758199945441
98753.779110547315213
98753.278224589827005
98752.751963736387552
98752.222038498657639
98751.686911488999613
98751.113883865822572
98750.510240072995657
98749.927161134008202
98749.372949029348092
98748.824310587195214
98748.277166513085831
98747.732620651528123
98747.16539583116537
98746.572379216115223
98745.999523857157328
98745.484590188541915
98745.007602136858623
98744.524022272031289
98744.021318422514014
98743.51332144314074
98743.004233386003762
98742.493669592266087
98741.99488060431031
98741.506995112315053
98741.005902236036491
98740.489580330700846
98739.988318679883378
98739.520126547387918
98739.074396428826731
98738.637025109346723
98738.20688413894095
98737.783187577544595
98737.357529618428089
98736.928565781650832
98736.505578079493716
98736.095169222317054
98735.694172184448689
98735.300728446396533
98734.923756505711935
98734.567394855985185
98734.222815003289725
98733.876492827082984
98733.519779820984695
98733.156913091836032
98732.798067218274809
98732.451647748996038
98732.117832716423436
98731.789250117944903
98731.457572802959476
98731.118053190715727
98730.776624379097484
98730.445560498235864
98730.134092656036955
98729.839788946948829
98729.550577705143951
98729.257655032284674
98728.962717065674951
98728.67348067414423
98728.398231115323142
98728.142636481759837
98727.906523590820143
98727.682102274018689
98727.46214188884187
98727.246238994324813
98727.040556644569733
98726.845601118751802
98726.65415750653483
98726.451189198502107
98726.226290378486738
98725.980740728380624
98725.727332538634073
98725.478704293011106
98725.23766545514809
98724.996253907927894
98724.746303540508961
98724.490779080195352
98724.242066405495279
98724.011625616127276
98723.797721471084515
98723.589776948996587
98723.380116362968693
98723.170758802487398
98722.96995222766418
98722.781881739836535
98722.60296700008621
98722.425355828905595
98722.242139522233629
98722.048439080303069
98721.841834013932385
98721.623287031863583
98721.398473324428778
98721.177165772343869
98720.967364338619518
98720.771495400505955
98720.585389412488439
98720.403071212524083
98720.222981041617459
98720.047319004690507
98719.878413553495193
98719.716322859341744
98719.558084210322704
98719.399377839581575
98719.237082232080866
98719.066897849101224
98718.884993861429393
98718.690623192713247
98718.489097201934783
98718.29094987703138
98718.105380944340141
98717.93531914675259
98717.776962467862177
98717.623856786711258
98717.472280911635607
98717.321455337121733
98717.170919058829895
98717.018212751689134
98716.860067437344696
98716.695770937265479
98716.529395269797533
98716.366540295173763
98716.209827342099743
98716.056657696943148
98715.901556959768641
98715.741149944427889
98715.577175942336908
98715.413500269802171
98715.251608103557373
98715.088975693899556
98714.920977267465787
98714.745292104125838
98714.56480470256065
98714.385521294854698
98714.211709863608121
98714.043671428662492
98713.878808045134065
98713.715118548527244
98713.552715748199262
98713.392607780479011
98713.234581330922083
98713.076931196177611
98712.918212333854171
98712.759125408018008
98712.602427282123244
98712.45075231215742
98712.304371227903175
98712.160490983442287
98712.014005222838023
98711.85971101996256
98711.694551757769659
98711.518811224363162
98711.336038548208307
98711.152537641391973
98710.975104878089041
98710.80839819603716
98710.654031574362307
98710.510988323498168
98710.376238345066668
98710.246194121136796
98710.118226304737618
98709.990641086405958
98709.862355613746331
98709.732730453746626
98709.600647097584442
98709.463422360902769
98709.317318549947231
98709.159035663382383
98708.987810041478951
98708.807194509223336
98708.62486915140471
98708.449747079619556
98708.288455132482341
98708.143228034343338
98708.012326153402682
98707.892244103364646
98707.780445253229118
98707.67614077719918
98705.617863055726048
98705.604391706336173
98705.584652230289066
98705.560771827367716
98705.535573107466917
98705.51054407619813
98705.48538145981729
98705.459031321734074
98705.43087605056644
98705.401493201599806
98705.372594633779954
98705.346296247385908
98705.324420489429031
98705.308151963647106
98705.297812730088481
98705.292784055593074
98705.291683519884828
98705.292578402673826
98705.293099261107272
98705.290669257607078
98705.282980492236675
98705.26832350208133
98705.24543777773215
98705.213300628136494
98705.171503758829203
98705.121089597450919
98705.065153916642885
98705.008512877291651
98704.956523678949452
98704.913608020957327
98704.882098143541953
98704.861707004412892
98704.850079016759992
98704.843860385139124
98704.839603305474157
98704.834179030716768
98704.824998832395067
98704.810301951991278
98704.789547154272441
98704.763702996177017
98704.735042951710057
98704.706341202516342
98704.67976173243369
98704.655815722799161
98704.632903220961452
98704.607641744063585
98704.5759318775672
98704.534177395122242
98704.480171284201788
98704.413597942650085
98704.33596434739593
98704.250126615865156
98704.15963828250824
98704.06804911220388
98703.978417904858361
98703.893361793816439
98703.815084753427072
98703.745242117176531
98703.68458109855419
98703.632241557890666
98703.585574677912518
98703.540542739341618
98703.492747696567676
98703.438726965352544
98703.376910426974064
98703.307992020083475
98703.234375975225703
98703.159108205276425
98703.084600943635451
98703.012041280569974
98702.941318881872576
98702.871478613669751
98702.801276270343806
98702.729471231883508
98702.655026121967239
98702.57711415180529
98702.495246668491745
98702.409662388206925
98702.321626815843047
98702.233433611792861
98702.147906888989382
98702.067518778261729
98701.99350054525712
98701.925183642713819
98701.86016032040061
98701.795215418023872
98701.72756424084946
98701.655888925190084
98701.58085592793941
98701.504773735709023
98701.430731340660714
98701.361570803012
98701.299066780455178
98701.243738669640152
98701.195082959908177
98701.151962922347593
98701.113015641632956
98701.076934937678743
98701.042704564475571
98701.009727952012327
98700.9778389618441
98700.947263849433511
98700.91850497003179
98700.892227663047379
98700.869090321692056
98700.849687088848441
98700.834591475169873
98700.824425650265766
98700.81975969922496
98700.820794650397147
98700.826993327616947
98700.837003290143912
98700.848822450992884
98700.86012347562064
98700.868844189928495
98700.873659517848864
98700.874193135474343
98700.870921034875209
98700.864767197272158
98700.856705995145603
98700.847472873181687
98700.83757261102437
98700.827502618674771
98700.817968668052345
98700.810009739710949
98700.804832734283991
98700.803509541510721
98700.806735276069958
98700.814675749323214
98700.827006145394989
98700.843117355689174
98700.862506532925181
98700.884992283623433
98700.910799038829282
98700.940398861581343
98700.974209569700179
98701.012394140663673
98701.054790448572021
98701.100925903898315
98701.150172984023811
98701.201855383595102
98701.255255362411845
98701.309662211016985
98701.364305487426464
98701.418328189029125
98701.470738017756958
98701.520420279281097
98701.566315706382738
98701.607569114901708
98701.643597316156956
98701.67410921404371
98701.69904916487576
98701.718560166598763
98701.732986044240533
98701.742923461337341
98701.74917775177164
98701.752680448145838
98701.75439137914509
98701.755136629202752
98701.755431258206954
98701.755387423865614
98701.754701665573521
98701.752782006995403
98701.74894321449392
98701.742615796320024
98701.733558168838499
98701.721944741962943
98701.708329454049817
98701.693479457113426
98701.678208774785162
98701.663223104027566
98701.648959311511135
98701.635538003858528
98701.622803773105261
98701.610464525758289
98701.598255889824941
98701.586040106558357
98701.573836751005729
98701.56183638497896
98701.550390214018989
98701.539970277881366
98701.531071840203367
98701.524140022287611
98701.519568411633372
98701.517739313683705
98701.519064526204602
98701.523891162680229
98701.532397409886471
98701.544582267291844
98701.560209892049897
98701.578730942783295
98701.599219832860399
98701.620468781751697
98701.641105763206724
98701.659759683723678
98701.675360968409223
98701.687351706248592
98701.695869219300221
98701.701796300418209
98701.706623975318507
98701.712117103073979
98701.720025428759982
98701.731795637781033
98701.748416784932488
98701.770347371304524
98701.797680140036391
98701.830168291198788
98701.867320363395265
98701.908396616650862
98701.952591625973582
98701.999064330753754
98702.047152947227005
98702.096439095694222
98702.146936385688605
98702.199141652148683
98702.254039219304104
98702.313061919921893
98702.377828799479175
98702.449808387289522
98702.530063579615671
98702.61913389826077
98702.717031618740293
98702.823262863137643
98702.936877326705144
98703.056751431606244
98703.181924689895823
98703.311801869378542
98703.446317953974358
98703.585936393006705
98703.731538512656698
98703.884259812766686
98704.045318767151912
98704.215919078837032
98704.39724372040655
98704.590406399511266
98704.796372501397855
98705.01598542703141
98705.249947262127534
98705.498805482740863
98705.762946460876265
98706.042612550794729
98706.337882247462403
98706.648622308144695
98706.974513452412793
98707.315174113813555
98707.67031540152675
98708.03982068640471
98708.423835842870176
98708.822797971515683
98709.237402123006177
98709.668532857162063
98710.11715980853478
98710.584220565389842
98711.070631694979966
98711.577255470620003
98755.341889999661362
98756.59319468891772
98756.440624221097096
98756.333042599188047
98756.338665344839683
98756.239161166595295
98756.043175209284527
98755.808995647996198
98755.554373460428906
98755.277907049734495
98754.945542341491091
98754.548761311700218
98754.112649757662439
98753.659588351933053
98753.190276697991067
98752.702551688780659
98752.212664311125991
98751.7156947547046
98751.176516447638278
98750.591181550218607
98750.005901294149226
98749.439824254950508
98748.878439911830355
98748.326739313881262
98747.79538472519198
98747.257547311921371
98746.692593318191939
98746.13155501219444
98745.617001483464264
98745.141139432220371
98744.664518331104773
98744.1732735458354
98743.67228135842015
98743.155254357348895
98742.62886384986632
98742.122200877245632
98741.644391993570025
98741.164861563622253
98740.667816676548682
98740.173852633466595
98739.702974714047741
98739.247916553809773
98738.798391691612778
98738.36092943935364
98737.933494965531281
98737.506515752669657
98737.080315988030634
98736.665430071603623
98736.266373836624552
98735.876913765634526
98735.491244908538647
98735.114854960731464
98734.755126820222358
98734.406604745672666
98734.053549270451185
98733.686135497875512
98733.310301939753117
98732.940816909540445
98732.58944651078491
98732.258587726289988
98731.943647341264295
98731.633185705592041
98731.318820057378616
98730.998752278377651
98730.678542415247648
98730.362793204316404
98730.052440262617893
98729.747128019604133
98729.448237374992459
98729.156678628074587
98728.871891416041763
98728.597184454891249
98728.339928681598394
98728.102704712262494
98727.877383743471
98727.653223175235325
98727.429265144062811
98727.212867483642185
98727.010361887179897
98726.814998427013052
98726.61073511489667
98726.380852471134858
98726.123407879116712
98725.851996424229583
98725.586478104145499
98725.337915436539333
98725.102611634458299
98724.868602396338247
98724.6292035200604
98724.390076039286214
98724.162617118417984
98723.951164644386154
98723.751704321432044
98723.557227905417676
98723.36531127805938
98723.17786838945176
98722.995096667087637
98722.814047034116811
98722.630281943071168
98722.438558643611032
98722.236313343237271
98722.022378858557204
98721.799845287780045
98721.575068960679346
98721.355137064761948
98721.145461733234697
98720.94724520330783
98720.756537352557643
98720.568131075444398
98720.378928895719582
98720.191228424271685
98720.008648369563161
98719.833076581635396
98719.662749679162516
98719.493783824596903
98719.323556859933888
98719.149219358383561
98718.96787523200328
98718.778454321160098
98718.584158380952431
98718.392084364808397
98718.209596271364717
98718.040078859849018
98717.881132949478342
98717.727569197799312
98717.574814541934757
98717.421019790097489
98717.264978133360273
98717.103644918577629
98716.934759658921394
98716.759578836892615
98716.584447826840915
98716.416224217915442
98716.258210260377382
98716.107836287992541
98715.959190195440897
98715.808082334915525
98715.654175292016589
98715.49869864503853
98715.340924899777747
98715.177534779024427
98715.005326142752892
98714.825187747410382
98714.643412298653857
98714.467560296805459
98714.301057433520327
98714.142270555021241
98713.987083764382987
98713.832512157183373
98713.67790179271833
98713.52307412114169
98713.366933239332866
98713.208268426373252
98713.047460427100305
98712.887430377479177
98712.732164749177173
98712.583922571444418
98712.441639189739362
98712.301395363087067
98712.157403200835688
98712.003935075335903
98711.837553110788576
98711.658913895385922
98711.472450429166202
98711.28536734811496
98711.105130644704332
98710.936539012720459
98710.780704782941029
98710.63559254311258
98710.497423101056484
98710.362504013755824
98710.228614271443803
98710.094982035923749
98709.961199205106823
98709.826510906466865
98709.68901445865049
98709.545597164978972
98709.393066810240271
98709.229754736865289
98709.056805874977726
98708.878688939323183
98708.702311105866102
98708.534476001412258
98708.379505611650529
98708.23821843258338
98708.108716132337577
98707.988484463188797
98707.875666710358928
98707.769054549309658
98705.492707207609783
98705.483786130324006
98705.470646266723634
98705.453825152493664
98705.434714785544202
98705.414513184296084
98705.393585517143947
98705.371798660897184
98705.349023858230794
98705.325573818801786
98705.302339117086376
98705.280521534004947
98705.26124923019961
98705.245553725122591
98705.234310331114102
98705.227993334003258
98705.226314925646875
98705.227674824156566
98705.229194962361362
98705.227336299911258
98705.218930370247108
98705.201926581328735
98705.175526383478427
98705.139980357067543
98705.096304727834649
98705.046121717430651
98704.99196149900672
98704.937371808395255
98704.886493337646243
98704.84317777317483
98704.809902699998929
98704.787217947538011
98704.773758131006616
98704.766769866459072
98704.762883431350929
98704.758689345835592
98704.751067014280125
98704.737714636139572
98704.717797366494779
98704.692276823756401
98704.663472272179206
98704.634087997823372
98704.606240979686845
98704.580625338072423
98704.556123879912775
98704.530107140730252
98704.499219064920908
98704.460226197174052
98704.410825099024805
98704.350109137871186
98704.278842479849118
98704.199291202385211
98704.11459251352062
98704.028104798868299
98703.943030871261726
98703.862265661664424
98703.788251312231296
98703.722726899388363
98703.666163908012095
98703.617327757106978
98703.573221034908784
98703.529794698231854
98703.482973096048227
98703.42981051573588
98703.369355926974094
98703.302763502928428
98703.232551655746647
98703.161392929978319
98703.091032933021779
98703.021862850859179
98702.953107938505127
98702.883475076916511
98702.811734323666315
98702.736949943908257
98702.658502187594422
98702.576151421060786
98702.490146860392997
98702.401345285208663
98702.311430817368091
98702.222783316945424
98702.138067771229544
98702.059382108927821
98701.987493284992524
98701.921543033939088
98701.85924012491887
98701.797717676716275
98701.73459750317852
98701.668792072974611
98701.600702674360946
98701.531895643202006
98701.464459470356815
98701.400185089049046
98701.340099336768617
98701.284388570973533
98701.232702713343315
98701.184593922429485
98701.139619030989707
98701.09738325708895
98701.057578347244998
98701.020011255401187
98700.984723136643879
98700.952050502877682
98700.922514029225567
98700.896657782592229
98700.874993627207004
98700.857953247075784
98700.845847035219776
98700.838826426057494
98700.836824256490218
98700.839369513836573
98700.84542132342176
98700.853309829879436
98700.861028882136452
98700.86670515993319
98700.869036720367149
98700.867625044877059
98700.863028403240605
98700.856421500764554
98700.849053199694026
98700.841804150579264
98700.835051842557732
98700.828773932618788
98700.822979394099093
98700.818137779060635
98700.815270818187855
98700.81574514300155
98700.820868978262297
98700.831465820680023
98700.847589176119072
98700.868491459157667
98700.892977022158448
98700.919905539049068
98700.948675648818607
98700.979324606843875
98701.012365999660688
98701.048586950462777
98701.088720523868687
98701.133135173862684
98701.181703926326009
98701.233849001830094
98701.288681500576786
98701.345184754783986
98701.402335206454154
98701.459179679994122
98701.514838214745396
98701.568488882723614
98701.619374253627029
98701.666841527578072
98701.710404263751116
98701.749717820930528
98701.784523205395089
98701.814682069772971
98701.840209214948118
98701.861287863008329
98701.878315235924674
98701.891897156834602
98701.902743023747462
98701.911579928768333
98701.91908918057743
98701.925736493227305
98701.931665704789339
98701.93675136101956
98701.940677483507898
98701.943075852250331
98701.943700932708452
98701.942592886320199
98701.940162596831215
98701.937119951180648
98701.934335917176213
98701.932677203541971
98701.932799460118986
98701.935048910294427
98701.939422408904647
98701.945604389256914
98701.953079219951178
98701.961270475541824
98701.969725614821073
98701.978215349110542
98701.986800894417684
98701.995861608636915
98702.005980020752759
98702.017822465903009
98702.032022397252149
98702.049165875854669
98702.069755202188389
98702.094151501485612
98702.122579762712121
98702.155083950405242
98702.191496811938123
98702.231480907852529
98702.274500273881131
98702.319769693887793
98702.366200788674178
98702.412488001500606
98702.45729107070656
98702.499506360225496
98702.53853000246454
98702.574480124385445
98702.608150211483007
98702.640843325381866
98702.674213340287679
98702.709901726033422
98702.749314029686502
98702.793451210673084
98702.842856633593328
98702.897629073268035
98702.957615841936786
98703.022633060536464
98703.092543075603317
98703.16711170252529
98703.246013651427347
98703.32879362712265
98703.41498464270262
98703.504206419063848
98703.59634637493582
98703.691639067517826
98703.790759536481346
98703.894797550485237
98704.00504165624443
98704.122703062384971
98704.248668782107416
98704.383396052537137
98704.526769991483889
98704.678153339584242
98704.836608271391015
98705.001185005370644
98705.171190416440368
98705.346426491407328
98705.527282129783998
98705.714652125781868
98705.909769186546328
98706.114011595593183
98706.328727235304541
98706.555075974960346
98706.794027893643943
98707.046487894913298
98707.313229769206373
98707.594792377567501
98707.89146382783656
98708.203370841947617
98708.530533555138391
98708.872929128803662
98709.230524963379139
98709.603254181885859
98709.991024630391621
98710.393773446645355
98710.811505864097853
98711.244339724478777
98711.692528733008658
98712.156452720300877
98712.636612875692663
98713.1336001339223
98713.648057831640472
98714.180698053562082
98714.732364519091789
98715.304062778915977
98756.678223182534566
98757.478232267982094
98757.176055194286164
98756.952700325738988
98756.904867324337829
98756.827931757929036
98756.596167494077235
98756.228151731993421
98755.83392228797311