/*--------------------------------*- C++ -*----------------------------------*\
  =========                 |
  \\      /  F ield         | OpenFOAM: The Open Source CFD Toolbox
   \\    /   O peration     | Website:  https://openfoam.org
    \\  /    A nd           | Version:  12
     \\/     M anipulation  |
\*---------------------------------------------------------------------------*/
FoamFile
{
    format      ascii;
    class       volScalarField;
    location    "0.006";
    object      pPrime2Mean;
}
// * * * * * * * * * * * * * * * * * * * * * * * * * * * * * * * * * * * * * //

dimensions      [2 -2 -4 0 0 0 0];

internalField   nonuniform List<scalar> 
75962
(
962920.85154342651367
943209.55148887634277
934619.20319747924805
928424.49604797363281
923336.60475730895996
918819.8653507232666
914513.31772804260254
910241.63192558288574
905872.6448974609375
901477.33425712585449
897193.7205696105957
893031.9626407623291
888932.97151947021484
884821.71301651000977
880739.21572303771973
876783.34158515930176
872970.23046112060547
869260.65774917602539
865589.24346733093262
861949.19807815551758
858378.23275375366211
854883.3211498260498
851494.14811325073242
848239.68555068969727
845145.62413215637207
842222.14907073974609
839503.32090377807617
837084.3692569732666
835007.88090705871582
833204.6522216796875
831589.9230785369873
830119.02660179138184
828767.7493782043457
827498.26043128967285
826266.31718826293945
825041.14860153198242
823801.45058822631836
822528.94046592712402
821236.4652099609375
819955.80765724182129
818689.81977844238281
817410.48069000244141
816092.32681465148926
814716.37809944152832
813257.09864044189453
811681.66953659057617
809974.0025691986084
808136.11759376525879
806189.6343879699707
804145.02915382385254
802005.19453811645508
799778.89838600158691
797455.69344711303711
795013.2515811920166
792456.48571586608887
789810.90756988525391
787107.10929107666016
784372.2910270690918
781628.0327320098877
778895.39739036560059
776199.91877937316895
773567.98712730407715
771015.16958045959473
768549.58712768554688
766180.2885913848877
763908.19974517822266
761716.39597129821777
759574.56987380981445
757460.06734275817871
755368.53889465332031
753308.22868347167969
751278.98933029174805
749264.75248336791992
747245.91798210144043
745212.57286834716797
743162.7568244934082
741094.65402793884277
739005.05666732788086
736888.4806957244873
734734.3693733215332
732535.48091888427734
730301.09610748291016
728058.17299842834473
725831.10037422180176
723625.56960296630859
721432.57186126708984
719236.62582015991211
717030.61521911621094
714830.55943489074707
712669.50550079345703
710571.96493911743164
708535.83006286621094
706544.27403259277344
704586.50631713867188
702671.77933311462402
700823.73025512695312
699054.84691047668457
697353.28501319885254
695690.50517272949219
694036.74863052368164
692373.62917709350586
690699.73481178283691
689024.83058547973633
687358.6993408203125
685703.61127281188965
684057.1430835723877
682413.75060844421387
680760.05275344848633
679077.58927536010742
677351.09392547607422
675574.24015998840332
673749.64434814453125
671882.0093822479248
669970.77336883544922
668008.85057258605957
665988.5302734375
663908.23320388793945
661769.2763557434082
659569.1388053894043
657302.16887092590332
654965.32087707519531
652560.32350540161133
650096.07681655883789
647586.29800605773926
645042.53923797607422
642472.8609447479248
639886.30987358093262
637292.8348274230957
634701.60928344726562
632123.05568885803223
629570.78924179077148
627059.49781799316406
624600.63790512084961
622197.55934715270996
619845.58503913879395
617539.76307487487793
615280.76614189147949
613074.66972351074219
610929.23732948303223
608848.33901786804199
606828.46744346618652
604860.32759857177734
602933.01734733581543
601035.06612777709961
599155.63659858703613
597287.91609764099121
595430.78366279602051
593586.24143028259277
591753.14716148376465
589922.0973014831543
588075.51160049438477
586193.79978561401367
584264.38797569274902
582286.97390937805176
580270.38742637634277
578225.32375526428223
576160.16176223754883
574080.75359535217285
571991.95940208435059
569895.28874969482422
567782.13655853271484
565635.44228363037109
563443.4677734375
561211.16604232788086
558955.62311363220215
556690.91759300231934
554419.45576095581055
552135.81728553771973
549839.15099716186523
547540.19716835021973
545254.76478958129883
542991.92200660705566
540752.41779899597168
538536.34927177429199
536346.64299392700195
534186.4971981048584
532057.91873359680176
529961.89065551757812
527896.81447219848633
525859.20596885681152
523848.20889663696289
521869.79137802124023
519936.22568511962891
518059.59408378601074
516243.44038772583008
514479.24898529052734
512751.76823043823242
511048.63249397277832
448405.4168643951416
446979.06484222412109
445539.44125556945801
444087.67676544189453
442624.10914421081543
441149.30044364929199
439663.63442039489746
438165.59311866760254
436652.39974975585938
435123.21295356750488
433581.33705902099609
432032.38240242004395
430481.14634895324707
428929.95219039916992
427378.22639083862305
425821.79584121704102
424253.10774993896484
422664.39677429199219
421052.115966796875
419418.71623039245605
417770.52677726745605
416113.50271987915039
414449.48574066162109
412775.44411659240723
411087.39062690734863
409386.57462692260742
407681.55717468261719
405983.30364227294922
404299.0648021697998
402631.2686767578125
400980.92100143432617
399349.96507835388184
397741.46263122558594
396160.2623348236084
394613.71491432189941
393109.82718849182129
391653.18088150024414
390241.88247299194336
388867.05492973327637
387515.68437957763672
386176.0684814453125
384842.82413291931152
383518.08343124389648
382208.25962257385254
380918.94870185852051
379651.02816963195801
378399.80706787109375
377157.89569282531738
375920.33585929870605
374688.29807472229004
373468.05435943603516
372266.46090126037598
371087.46965217590332
369931.5816707611084
368797.11664009094238
367680.62751388549805
366576.6616268157959
365479.01435089111328
364382.90382766723633
363286.40697479248047
362189.74823188781738
361092.81343460083008
359993.07036972045898
358885.44661903381348
357764.49907684326172
356627.20409202575684
355474.12642669677734
354308.1978702545166
353132.21120071411133
351947.74096870422363
350755.9378833770752
349557.64231872558594
348351.76597785949707
347134.09993743896484
345899.03192138671875
344643.39486885070801
343368.83194160461426
342080.21703338623047
340781.67891311645508
339474.19342803955078
338156.20711898803711
336825.06370544433594
335477.05434989929199
334107.08722877502441
332709.75620079040527
331281.63104438781738
329822.83143424987793
328337.02150535583496
326830.42776489257812
325310.16135597229004
323782.28509521484375
322250.58347511291504
320716.60872077941895
319180.51375198364258
317641.70743370056152
316099.1550178527832
314551.33186531066895
312996.84316062927246
311436.31937789916992
309874.54196357727051
308320.2641429901123
306783.04644966125488
305269.92959022521973
303784.45783042907715
302327.42268180847168
300897.61323738098145
299492.66648864746094
298110.18549346923828
296748.0677661895752
295403.61739158630371
294073.06671905517578
292753.4639892578125
291445.45809745788574
290153.59992599487305
288882.9808521270752
287635.38022994995117
286408.35247802734375
285197.9177131652832
284002.61113357543945
282825.34253883361816
281671.09072303771973
280542.37558555603027
279436.88821411132812
278348.98455429077148
277273.13171195983887
276205.99629592895508
275145.94158744812012
274091.40124702453613
273040.12056732177734
271989.81119918823242
270939.45992279052734
269889.51459312438965
268840.38986587524414
267790.79611778259277
266737.22452354431152
265674.80036926269531
264598.26681518554688
263502.26460456848145
262381.20375823974609
261229.91628265380859
260045.45834732055664
258828.8673152923584
257585.86053085327148
256325.40608596801758
255056.37958717346191
253783.75485610961914
252506.70065498352051
251220.07346725463867
249917.85876655578613
248595.53443717956543
247250.26611328125
245879.93609619140625
244483.01376914978027
243059.5843505859375
241612.27486419677734
240145.87286567687988
238665.80548667907715
237176.99440574645996
235683.79938125610352
234190.63285446166992
232702.41454124450684
231224.34194946289062
229761.01627159118652
228315.29597282409668
226887.58024787902832
225476.38567733764648
224080.06960296630859
222698.48507690429688
221333.20353698730469
219986.24511528015137
218658.78038215637207
217351.1201286315918
216063.66619110107422
214797.67486953735352
213555.36636352539062
212339.52167892456055
211152.75931358337402
209996.54144096374512
208870.74609375
207774.55414772033691
206708.11295890808105
205673.18385314941406
204671.72120475769043
203703.47782516479492
202764.60674476623535
201848.53396034240723
200948.60363960266113
200060.74957466125488
199184.46768379211426
198321.69413185119629
197474.54117774963379
196643.57341384887695
195827.6951732635498
195025.23161315917969
194235.05583190917969
193456.80266952514648
192690.30873489379883
191935.15043640136719
191190.74063301086426
190456.63280487060547
189732.47115707397461
189017.63842010498047
188310.94443321228027
187610.49203681945801
186913.63803100585938
186217.06498527526855
185517.13553237915039
184810.6673641204834
184095.44250297546387
183369.74823379516602
182631.28670883178711
181876.98075294494629
181104.43550491333008
180314.02813529968262
179509.48685646057129
178695.9431266784668
177876.89654922485352
177052.54255294799805
176220.4796142578125
175377.9798641204834
174524.00916862487793
173660.01583862304688
172789.68423652648926
171918.24457550048828
171051.65177345275879
170195.6229190826416
169354.67114067077637
168531.24328422546387
167725.25364685058594
166934.2026481628418
166154.2319393157959
165382.04716873168945
164616.87161827087402
163861.12275314331055
163119.15462112426758
162394.94954872131348
161690.44558334350586
161005.60273933410645
160339.79253578186035
159692.92592239379883
159065.42915153503418
158457.59946060180664
157869.5058422088623
157301.7320613861084
156756.16108894348145
156235.76177406311035
155743.66194915771484
155282.37887191772461
154853.78615379333496
154459.44614410400391
154100.62178611755371
153777.74860572814941
153489.89317512512207
153234.52677154541016
984340.50115013122559
957301.70792198181152
945214.82950592041016
936261.50139808654785
929247.57914543151855
923496.69869422912598
918430.52253532409668
913666.8733024597168
908945.26503753662109
904210.13715362548828
899456.49159622192383
894695.2772388458252
889966.37887001037598
885315.86724281311035
880796.62891960144043
876483.97043037414551
872413.08737754821777
868569.9916820526123
864917.10111808776855
861411.34027862548828
858059.33545112609863
854840.69018936157227
851715.72663497924805
848674.36319732666016
845716.77631187438965
842843.20783042907715
840083.10685157775879
837529.56406021118164
835274.00784683227539
833302.59909057617188
831561.73085975646973
830011.37658309936523
828625.60932922363281
827366.95246887207031
826182.76991081237793
825052.93001365661621
823947.20891189575195
822800.38859748840332
821574.42875480651855
820296.18827819824219
818979.62216377258301
817602.99118041992188
816142.4974536895752
814597.76643753051758
812961.5593318939209
811213.88089561462402
809352.98749351501465
807395.63551139831543
805353.04325866699219
803226.20418930053711
801013.53606986999512
798719.84048080444336
796352.99625968933105
793899.09299850463867
791349.6270751953125
788708.79204559326172
785998.64804267883301
783248.21793556213379
780485.55453300476074
777741.56386756896973
775052.99889373779297
772455.17898941040039
769968.14676094055176
767592.31767272949219
765321.3884391784668
763144.10695457458496
761044.67496681213379
758998.38911437988281
756984.81169128417969
754993.6277027130127
753024.63840866088867
751069.05860900878906
749112.24750709533691
747145.81406211853027
745169.42180824279785
743182.99224090576172
741181.50741195678711
739157.05694198608398
737100.14313507080078
735002.06787872314453
732853.05972862243652
730661.43350791931152
728452.24970817565918
726252.15652465820312
724068.08052253723145
721891.8558521270752
719713.82526588439941
717533.17144584655762
715364.72969055175781
713235.47853851318359
711165.11219596862793
709148.76724052429199
707168.2038688659668
705210.93461418151855
703281.59912872314453
701399.3729248046875
699579.38208198547363
697814.84017753601074
696082.83742713928223
694356.61531448364258
692615.01752853393555
690852.78419494628906
689081.45772361755371
687315.82026672363281
685566.1594352722168
683835.26669883728027
682118.22897911071777
680400.00976371765137
678660.27577590942383
676884.70808219909668
675068.14132499694824
673211.56338500976562
671318.0902271270752
669385.90892601013184
667408.01100730895996
665382.62752914428711
663314.38698196411133
661205.2974967956543
659046.12349891662598
656822.16054534912109
654524.07952499389648
652152.19123649597168
649714.68727684020996
647225.23661041259766
644696.76721572875977
642137.00391578674316
639550.61468315124512
636944.26429748535156
634327.08361053466797
631711.71954536437988
629116.12439727783203
626561.71920967102051
624064.84450531005859
621628.4813232421875
619244.72390747070312
616907.05283737182617
614616.82304191589355
612380.80278778076172
610205.32034301757812
608092.53544616699219
606039.37969017028809
604039.89862632751465
602087.72141075134277
600172.9145336151123
598281.19404983520508
596401.60173606872559
594533.37021064758301
592681.87237167358398
590848.54654312133789
589023.84969711303711
587189.29178810119629
585325.15217399597168
583418.96300315856934
581470.15601921081543
579485.71844291687012
577473.10381126403809
575438.82207489013672
573390.35571670532227
571335.42185211181641
569275.88569259643555
567201.66755485534668
565096.03936004638672
562949.97195243835449
560769.26926040649414
558568.76760292053223
556360.6389102935791
554146.45729446411133
551919.03564071655273
549672.29098892211914
547410.87104225158691
545148.82354354858398
542899.72739410400391
540671.92174530029297
538470.96508026123047
536299.99409675598145
534157.35900497436523
532039.79629516601562
529947.19165802001953
527881.34363746643066
525843.2402458190918
523835.2905216217041
521863.71199798583984
519936.72945785522461
518060.93854904174805
516237.58138275146484
514460.09471893310547
512716.34963417053223
510996.14468193054199
509295.91168975830078
449846.33862495422363
448406.4256591796875
446953.92104721069336
445488.89446640014648
444010.97539138793945
442519.92696380615234
441017.45215225219727
439505.98635482788086
437985.10016441345215
436451.53501510620117
434903.71400833129883
433344.75166130065918
431780.94759368896484
430218.12267303466797
428659.20695686340332
427103.06437873840332
425543.81815528869629
423971.93882369995117
422378.2244815826416
420758.83515930175781
419117.12857818603516
417460.88649368286133
415797.44018936157227
414129.70555686950684
412455.20798110961914
410769.19331741333008
409070.4167652130127
407364.5174617767334
405660.91994667053223
403967.02176475524902
402286.45269966125488
400621.45482063293457
398974.56803703308105
397349.18722915649414
395751.39126968383789
394191.04720497131348
392678.33873176574707
391217.44671249389648
389803.09588050842285
388422.81250762939453
387062.41719055175781
385711.55989074707031
384367.14873695373535
383032.9478702545166
381715.65919876098633
380420.09583854675293
379146.16400909423828
377888.61882591247559
376639.67414665222168
375393.56502342224121
374150.02608680725098
372914.71970367431641
371696.90126419067383
370505.33292007446289
369344.77738761901855
368214.54570198059082
367109.10972213745117
366020.06401634216309
364938.61903762817383
363857.44934844970703
362771.57076454162598
361678.40869331359863
360577.11658477783203
359467.22073745727539
358347.13582038879395
357214.08155632019043
356065.70469284057617
354901.93434906005859
353725.28875350952148
352539.14235496520996
351345.94305229187012
350147.0439395904541
348943.25601577758789
347733.78704643249512
346514.39644050598145
345278.36987495422363
344020.94772720336914
342742.93768501281738
341449.25014495849609
340144.33580589294434
338829.55694580078125
337504.10183715820312
336166.18202781677246
334812.24804878234863
333436.43198013305664
332032.50849342346191
330597.03202056884766
329130.96027565002441
327638.9866771697998
326127.95488548278809
324604.97975730895996
323075.56384658813477
321542.04695701599121
320004.05700492858887
318460.83103561401367
316913.26413154602051
315363.49386405944824
313812.60853958129883
312259.6427059173584
310703.70624542236328
309147.4608154296875
307598.20327186584473
306065.48947525024414
304557.57101249694824
303079.29562377929688
301631.8011417388916
300213.49957847595215
298821.96541404724121
297455.75403594970703
296114.15949249267578
294794.93232917785645
293493.21224403381348
292203.71567153930664
290924.59910202026367
289658.92194557189941
288411.9353141784668
287186.8964958190918
285983.12558937072754
284797.79634284973145
283629.7955379486084
282481.74876022338867
281358.03029441833496
280260.4781379699707
279186.13981437683105
278128.98020172119141
277083.2465934753418
276045.24517250061035
275012.55165481567383
273982.50839805603027
272952.14096450805664
271919.56645202636719
270885.18622016906738
269851.10576248168945
268819.13363647460938
267788.61260795593262
266755.7664909362793
265714.59910202026367
264658.33498954772949
263580.50186920166016
262475.46282196044922
261338.97074317932129
260169.07520866394043
258967.25957870483398
257738.73299980163574
256491.17105293273926
255231.76725387573242
253964.13046646118164
252687.34299278259277
251397.852783203125
250092.27932929992676
248768.58983421325684
247425.12171745300293
246059.48413467407227
244669.14594841003418
243253.3157901763916
241814.17735290527344
240356.23185729980469
238884.51999092102051
237403.49072456359863
235917.17367172241211
234429.73950958251953
232945.70889091491699
231469.61938858032227
230005.27067184448242
228554.95790863037109
227119.32326507568359
225698.1099739074707
224291.38359642028809
222900.19490242004395
221526.19147491455078
220170.6124324798584
218833.84090805053711
217515.97076606750488
216217.69315338134766
214940.61589431762695
213686.91026878356934
212458.88101005554199
211258.55663299560547
210087.15785217285156
208944.81596374511719
207831.29602241516113
206747.22210311889648
205694.55936431884766
204675.53457832336426
203690.46767234802246
202736.17642593383789
201806.26762771606445
200893.44464302062988
199992.47344779968262
199101.9963550567627
198224.11259269714355
197362.11100006103516
196518.14584541320801
195692.29695320129395
194883.29887008666992
194089.85054206848145
193311.34996223449707
192547.65630149841309
191798.38711166381836
191062.61400413513184
190339.14176750183105
189626.95683670043945
188925.37489318847656
188233.821533203125
187551.26359176635742
186875.40326881408691
186202.13004875183105
185526.11152076721191
184842.45006942749023
184148.05799674987793
183441.47701644897461
182721.46795272827148
181986.05480575561523
181233.42527389526367
180463.85501861572266
179680.55388450622559
178888.18440437316895
178089.90923881530762
177285.59467506408691
176472.44535255432129
175647.28496742248535
174808.85493087768555
173958.51833724975586
173099.51396751403809
172236.02948188781738
171373.01474952697754
170516.43880081176758
169672.89657402038574
168847.94275856018066
168043.6402759552002
167257.29420471191406
166482.85358238220215
165714.47722625732422
164949.81456184387207
164191.01767349243164
163443.06921005249023
162711.00830841064453
161998.09958839416504
161305.75676727294922
160634.48713874816895
159984.50804138183594
159355.43954277038574
158745.76179885864258
158153.2616081237793
157576.66019439697266
157017.16982269287109
156478.67518615722656
155966.27968978881836
155484.59712219238281
155037.06279754638672
154626.24544334411621
154254.17104721069336
153922.00994873046875
153629.1494083404541
153372.40303421020508
956591.87998580932617
941459.9778003692627
934373.67273139953613
927958.24909782409668
922470.19040679931641
917751.03474998474121
913495.91211700439453
909457.16483116149902
905489.10772895812988
901488.45340728759766
897341.6252384185791
892994.38197708129883
888487.68826675415039
883933.74989128112793
879416.34930610656738
875029.17842483520508
870878.1389102935791
867005.33278656005859
863372.632080078125
859933.0989990234375
856702.98176574707031
853665.09164810180664
850761.56867408752441
847985.84963035583496
845309.60713958740234
842696.58226585388184
840134.29744911193848
837673.68922424316406
835404.03938865661621
833354.23291969299316
831514.5220947265625
829875.6436595916748
828422.21518516540527
827094.48838043212891
825849.53555679321289
824698.2376651763916
823633.75791358947754
822580.87556648254395
821467.69622802734375
820275.98592567443848
819008.56598091125488
817646.44451522827148
816164.72573471069336
814567.22877311706543
812856.1182918548584
811017.53288459777832
809057.3272533416748
807008.5078067779541
804882.11044883728027
802666.49981689453125
800359.82504272460938
797974.02044486999512
795528.6602725982666
793024.76313209533691
790448.60897827148438
787793.05154800415039
785067.73671913146973
782301.65984535217285
779528.34354400634766
776787.52654075622559
774115.73022079467773
771539.50427627563477
769074.35023307800293
766723.10665512084961
764475.29011535644531
762313.66391372680664
760226.51827239990234
758205.1405086517334
756236.88055801391602
754305.11037635803223
752396.8687629699707
750498.88198852539062
748602.2501220703125
746704.09644889831543
744806.59443283081055
742910.91471290588379
741010.50251007080078
739092.92927169799805
737140.60658073425293
735136.47621726989746
733068.38534927368164
730941.79541969299316
728781.12567710876465
726611.36751365661621
724444.28944396972656
722277.35002517700195
720106.02918243408203
717935.84664535522461
715780.18876838684082
713655.70321846008301
711576.19027328491211
709541.62771415710449
707539.26372337341309
705557.3514289855957
703595.21531677246094
701666.2164249420166
699782.38079833984375
697939.35324096679688
696120.89614677429199
694306.02204513549805
692477.43963241577148
690630.42056846618652
688777.09622573852539
686935.05315780639648
685114.32230377197266
683314.91851234436035
681529.34489631652832
679746.27496910095215
677953.45823669433594
676140.27842712402344
674298.96764945983887
672425.84490013122559
670521.41569900512695
668583.40079879760742
666608.09051704406738
664599.66967582702637
662567.18670272827148
660510.76792335510254
658414.35831260681152
656254.89847183227539
654018.18903923034668
651702.73697090148926
649315.6299877166748
646868.37327003479004
644373.47493934631348
641839.10272216796875
639268.66245651245117
636665.89242172241211
634039.05835342407227
631403.25930213928223
628780.94921875
626199.1347770690918
623677.2376880645752
621217.22491645812988
618809.06256675720215
616445.01706504821777
614126.35050773620605
611859.45190811157227
609650.36494445800781
607501.24645233154297
605409.31130981445312
603370.78165245056152
601383.13708114624023
599438.86721611022949
597521.70606994628906
595616.80778312683105
593722.67902755737305
591847.62137985229492
589995.85102844238281
588158.80145454406738
586317.81242752075195
584453.34758949279785
582554.41730499267578
580621.13654327392578
578658.73440933227539
576672.50246620178223
574668.29123878479004
572653.60095596313477
570634.80124855041504
568611.62821960449219
566575.05755805969238
564513.61141014099121
562424.00494575500488
560313.12002372741699
558191.73088073730469
556066.7139720916748
553937.16643714904785
551794.8336238861084
549630.51698303222656
547443.80938720703125
545246.13929557800293
543052.9333553314209
540876.27956390380859
538722.98533248901367
536593.09771728515625
534480.37883186340332
532379.35638809204102
530292.11727905273438
528226.45310211181641
526190.19636535644531
524189.38111305236816
522227.87739944458008
520305.78902626037598
518420.77225494384766
516571.32970809936523
514755.98293113708496
512970.67996215820312
511210.65140151977539
509473.9420166015625
449914.9326171875
448442.40571212768555
446959.70904159545898
445463.92092323303223
443952.09911727905273
442424.1822624206543
440884.91449928283691
439340.15554046630859
437791.27507019042969
436234.9405403137207
434668.18949127197266
433092.11528205871582
431511.20473670959473
429931.05388069152832
428355.67546272277832
426784.67489242553711
425211.9029655456543
423627.42864990234375
422022.08711242675781
420391.9623966217041
418740.21072006225586
417074.83590888977051
415404.44619750976562
413734.13472557067871
412063.22057914733887
410386.66164207458496
408700.67632293701172
407007.3991584777832
405313.46025848388672
403624.99568939208984
401945.78008079528809
400278.96220970153809
398628.22388458251953
396998.02786827087402
395395.35356712341309
393830.58498382568359
392313.3525333404541
390845.58063697814941
389418.97635459899902
388019.55327987670898
386634.98748016357422
385259.37839508056641
383893.58748626708984
382542.63881874084473
381212.19029426574707
379905.27778434753418
378620.22826385498047
377351.21553421020508
376091.20549392700195
374835.51823806762695
373583.89209175109863
372341.05583381652832
371116.21138191223145
369920.21794700622559
368760.06539726257324
367634.83539390563965
366536.86374282836914
365456.3538932800293
364384.19245338439941
363311.81251525878906
362231.4074878692627
361138.11767196655273
360031.34469032287598
358913.10224342346191
357784.64041900634766
356644.62474632263184
355490.40856552124023
354320.68879508972168
353136.93159866333008
351942.38443374633789
350740.1021785736084
349532.38015937805176
348320.89337158203125
347105.34271621704102
345881.40663528442383
344641.68902587890625
343380.47601318359375
342097.76476097106934
340797.91050338745117
339484.91216278076172
338160.13193321228027
336823.53529739379883
335474.80685424804688
334111.97703552246094
332729.93820190429688
331322.37552261352539
329885.58068084716797
328420.45730209350586
326931.60830497741699
325425.30569648742676
323907.68702697753906
322383.01626396179199
320852.34919357299805
319314.19741439819336
317767.54501724243164
316214.66381645202637
314660.51809120178223
313109.27551651000977
311561.71700096130371
310016.50296974182129
308474.05862998962402
306939.0470085144043
305419.4011116027832
303923.33017921447754
302456.45220756530762
301020.38041114807129
299613.68348503112793
298234.51568603515625
296882.54108238220215
295557.96570014953613
294258.84343910217285
292979.98859596252441
291715.58302307128906
290463.20474052429199
289225.26882934570312
288006.8143253326416
286811.5374755859375
285639.58709526062012
284488.80003547668457
283358.04439353942871
282249.00789451599121
281164.31159400939941
280104.05178833007812
279064.57072830200195
278040.25896453857422
277026.05068969726562
276017.96099090576172
275011.98772430419922
274003.69990730285645
272989.58736610412598
271969.01179313659668
270944.57964897155762
269920.4912223815918
268899.85824775695801
267882.62932777404785
266864.94425201416016
265839.93866539001465
264799.57121086120605
263736.58035850524902
262645.51652717590332
261522.99300384521484
260367.9849796295166
259182.34798431396484
257970.84542846679688
256739.67505645751953
255493.84909248352051
254235.15644454956055
252962.30171394348145
251673.08034515380859
250366.40930557250977
249042.33584976196289
247700.40599060058594
246338.70738792419434
244954.93659210205078
243548.62499237060547
242122.2154541015625
240679.84228324890137
239225.32394981384277
237761.511962890625
236291.03952026367188
234817.20495986938477
233343.95281219482422
231875.21817398071289
230414.23126029968262
228963.11112785339355
227522.90503311157227
226094.28673934936523
224678.31305122375488
223276.67691421508789
221891.25804710388184
220523.52713584899902
219174.35266304016113
217844.3698844909668
216534.48347091674805
215246.04959106445312
213980.64391708374023
212739.7426643371582
211524.42776107788086
210335.26716041564941
209172.58634757995605
208037.01132011413574
206929.98225021362305
205853.79196166992188
204810.71890449523926
203801.63512420654297
202824.63935852050781
201874.69901847839355
200945.00856018066406
200029.69583129882812
199126.2347297668457
198235.94598960876465
197362.26062202453613
196508.06802558898926
195674.13293647766113
194859.34515380859375
194062.25692367553711
193282.28014373779297
192519.44320487976074
191773.34695434570312
191042.54464149475098
190324.97777938842773
189618.94120407104492
188923.78299713134766
188239.75375747680664
187566.90368461608887
186903.62158012390137
186245.77788925170898
185587.47241401672363
184923.06839179992676
184248.97197532653809
183563.56331062316895
182865.59912109375
182153.05250549316406
181423.90636444091797
180678.1098518371582
179918.41615867614746
179148.96397972106934
178372.53339004516602
177588.73393058776855
176794.46015548706055
175986.2689323425293
175162.83643913269043
174325.79997444152832
173478.62716102600098
172625.01848220825195
171768.69416809082031
170914.70204734802246
170070.29087257385254
169243.33692932128906
168438.61922454833984
167654.93567276000977
166885.84171867370605
166123.74033737182617
165364.37570381164551
164608.58224678039551
163860.76545143127441
163125.93654251098633
162407.65455436706543
161707.82989501953125
161027.64515113830566
160368.25335121154785
159730.33597755432129
159113.21542930603027
158514.85853958129883
157933.26611709594727
157368.37262153625488
156822.8921947479248
156301.33594512939453
155808.15169715881348
155346.55399703979492
154918.83602333068848
154527.36493492126465
154174.83503723144531
153863.11759376525879
153591.48660469055176
153355.63444328308105
973695.40609931945801
950540.38546943664551
939701.41012763977051
930976.01315116882324
923617.13315582275391
917326.52261161804199
911910.9761962890625
907094.79819297790527
902737.4334774017334
898663.60932350158691