/*--------------------------------*- C++ -*----------------------------------*\
  =========                 |
  \\      /  F ield         | OpenFOAM: The Open Source CFD Toolbox
   \\    /   O peration     | Website:  https://openfoam.org
    \\  /    A nd           | Version:  12
     \\/     M anipulation  |
\*---------------------------------------------------------------------------*/
FoamFile
{
    format      ascii;
    class       volScalarField;
    location    "0.006";
    object      rho;
}
// * * * * * * * * * * * * * * * * * * * * * * * * * * * * * * * * * * * * * //

dimensions      [1 -3 0 0 0 0 0];

internalField   nonuniform List<scalar> 
75962
(
1.1515649003331616118
1.1480063860901774664
1.1485724577710676453
1.1507105506235604242
1.1508785700899926141
1.1505319247899070678
1.1505816914887359026
1.1508221401414755469
1.1511439413687662991
1.1502987398421509191
1.1488689368749880337
1.1484583543700437325
1.1493079680346447446
1.1505400867601089931
1.1512807895432854988
1.1511605962854090102
1.1506405638538874658
1.1503446494213911411
1.150111328467756433
1.149551915548022496
1.1490144600774172545
1.1489305632717115024
1.1490979474923768144
1.149284813935139038
1.1495949564744201155
1.1498511266831032973
1.1494731588672648659
1.1484718121966936977
1.1476642406155430631
1.1476996934084351398
1.1483495788576936203
1.1489721383411815037
1.149268594195824722
1.1492386505439655675
1.1489169077895520221
1.1485468142576236161
1.1485042271617167398
1.1487116277797042585
1.1487805987854196044
1.1485766173306239946
1.1482926457960611621
1.1479473687543011451
1.1473919366675611187
1.1467219782902471348
1.1463069398598477733
1.1463541818426725705
1.1467150431329340421
1.147149850140019689
1.147488270931434684
1.1475700525362637627
1.1472592679371029778
1.1466208273065059409
1.14596099068372137
1.1455428067718866902
1.1454273851478740109
1.145536519113512508
1.1457458409005449873
1.1459392843908262627
1.1460419414356575185
1.1460117823416133831
1.1458751388796559745
1.1456804867376064738
1.1455502637728838256
1.1455086465806421092
1.1455139585772153854
1.1455993272752065248
1.1458165753790949815
1.1460654688773552756
1.1461193915292160472
1.1458570088304349532
1.1454377978654743941
1.1451599202873916639
1.1451498848395553765
1.1452925290076898523
1.145336332476725838
1.1450422228061414298
1.1444301413459074812
1.143718589570274613
1.1432756775310870534
1.1433010517987560739
1.1437427324704301235
1.1442765496611806419
1.1446316681252401981
1.1447310183780536885
1.1447426403091041092
1.1448933996313894745
1.1452172715360640076
1.1455227546148345485
1.1455923963043994629
1.1453753385859841707
1.1450487337133095078
1.1448112077778733742
1.1447129218236669068
1.1446174606460228773
1.1443894347454917071
1.1440509294642935423
1.1437362866467002398
1.1435716200908647711
1.1435703257113254416
1.1436704301172382348
1.1438321185463327101
1.1440573304043228919
1.1443431811281432608
1.1446411671883378602
1.144882909716198105
1.1450311359387099763
1.1450772708002645572
1.1449970145339130045
1.1447463310834462558
1.14431365616799674
1.1437568256334060823
1.1432119351941880669
1.142805818976555976
1.1425985486464285135
1.1426044430727386736
1.1428684509644759792
1.1434145378047579911
1.1441800349027202444
1.1449834864848920102
1.1456054186835153974
1.1459151562666649582
1.1459105377475644616
1.1456723615239878811
1.1452823191038590256
1.1447899323022658891
1.1442378453139741001
1.1437151753254184428
1.1433575550054100312
1.1432711581053396355
1.1434627440191198477
1.1438244603236302765
1.144208150892593201
1.1445148709342123361
1.1447225854049865035
1.1448329700024539868
1.1448151780338924333
1.1446082916638433691
1.1441934032220071327
1.143644748317253379
1.1431140607638898832
1.1427536327453438059
1.1426455191647133525
1.14277707110708171
1.1430844429647581961
1.1435133939651662693
1.1440452525603039824
1.1446762692054996968
1.145378646113958121
1.1460939581019629063
1.1467686364974967184
1.1473874539284298901
1.1479654784612072227
1.1485151924377066113
1.1490137386876859704
1.1494102702974366981
1.1496662686589178559
1.1497882645453456618
1.1498239239224072872
1.1498341461725805068
1.1498611521266250968
1.149914838591120203
1.1499765568210214006
1.1500142224215814668
1.1499897111455936738
1.1498767950539037219
1.1496709243281972856
1.1493973783342088524
1.1491046382478495858
1.1488463816154415031
1.1486668141293783219
1.1485845797718523542
1.1485939412255772307
1.1486726963824107628
1.1487963581508942035
1.1489511652131920716
1.1491471106209028008
1.1494136112891886192
1.1497677161518284894
1.1501896704751415346
1.1506132148040986163
1.1509471774952437784
1.1511212109167670015
1.1511242764962117402
1.1510125676476319345
1.150873500371118574
1.1507701402206356178
1.1507091498028987342
1.1506571930257729619
1.1498792980526251206
1.1499515541087010906
1.1499310267258862073
1.1498375059462677683
1.1497232374122534626
1.1496340631697756773
1.1495858175758832953
1.1495632647118794178
1.1495361526418217402
1.1494798853733403377
1.149386559996898205
1.1492645786461965773
1.1491343762266397199
1.1490203679930566238
1.1489436264902010976
1.148916611246872943
1.1489400663337290265
1.149005677035259243
1.1491027995369489378
1.1492283054098366701
1.1493913524835488449
1.1496043411007359492
1.1498652659850638891
1.1501440794507931109
1.1503853471967786515
1.1505315203410413361
1.1505513936962277199
1.1504563699593060022
1.1502948503491914334
1.1501296056854941607
1.1500107099236993591
1.1499606063909468823
1.1499764835067698421
1.1500420771768578021
1.1501412864677496017
1.1502621014418752399
1.1503906550165081679
1.1505079422084414364
1.1505916187330076372
1.1506254113237308623
1.1506117054003430766
1.1505779200965826625
1.1505673481034524031
1.1506209295643132773
1.1507621007850472594
1.1509878325103803931
1.1512697296291602989
1.1515630481557930231
1.1518197220630215227
1.1520036889644496014
1.1520992433967520707
1.1521104898535245997
1.1520525779946766409
1.1519426149945595217
1.1517901598404038932
1.1516027492390255027
1.1513878954658101073
1.151161150936170996
1.1509528088086131703
1.1507981647751823751
1.1507229058004508904
1.1507326119222169858
1.1508079254043839246
1.1509106726954960731
1.1509979444530595849
1.151038388513167865
1.1510213629086860632
1.1509567963831617288
1.1508654878200323957
1.1507689306444628397
1.1506862629936835951
1.1506286595169896714
1.1506021448017911268
1.150611971244295928
1.150658876671796671
1.150735442090578653
1.1508234047046668191
1.1508956425074241547
1.1509254736245753126
1.1509005257249416143
1.1508306601424278526
1.1507467773145698686
1.1506890048619762279
1.1506890462200549674
1.1507558717640502532
1.1508706945185394055
1.150994658152816541
1.1510853437177246406
1.1511133812332594584
1.1510722387571474812
1.1509776029364497951
1.1508585790819878536
1.1507467384118645892
1.1506667327776269882
1.1506312578707564853
1.1506403457914387012
1.1506838283868658923
1.1507458818846745263
1.1508098221290408159
1.1508621159563534597
1.1508951675958427607
1.1509071540619340013
1.1508997303011911928
1.1508750700921741572
1.1508330461642934939
1.1507705146333280233
1.1506835906219328169
1.1505721301228588604
1.1504436224539296152
1.1503140796009811986
1.1502046768124196685
1.1501361720128047139
1.1501221092586397798
1.1501641874668095955
1.1502523511850502036
1.1503685751260417369
1.1504926165043523056
1.1506078309493978917
1.1507040512221875517
1.1507769283200830479
1.1508251237262394628
1.1508474210061652165
1.1508418512514062559
1.1508062910295291381
1.1507411697244378512
1.1506513058105778402
1.1505451059090561206
1.1504320953566102848
1.1503201572227426119
1.1502132746847264499
1.150111077867719267
1.150010430184854382
1.149907602201186485
1.1498006071331583478
1.1496901991976122837
1.1495799224440623743
1.1494740289453084792
1.1493753668303947624
1.1492844165527753564
1.1492001505502444925
1.149122866389453046
1.1490553600290442926
1.1490029729207618114
1.1489721382147080053
1.1489684824335810731
1.1489943626555643164
1.1490475418667767116
1.1491215131155818607
1.1492073736915584536
1.1492959711098773568
1.1493795796580335011
1.1494524796884912909
1.1495110191643624908
1.1495527622778933807
1.1495756094997757746
1.1495779259074654366
1.149559698688313869
1.1495238792764126412
1.1494775054291612726
1.1494313140204122092
1.149396499846382147
1.1493809145527142945
1.1493860452466333477
1.1494064157456551634
1.1494310642157994362
1.1494475243221113914
1.1494455272042447547
1.1494197462173993962
1.1493710769014602313
1.1493052141923998377
1.1492301983794517284
1.1491540792378804881
1.1490831779995138717
1.1490201546607969885
1.1489640535847516212
1.1489114089475129799
1.1488581116964970974
1.1488003726537727722
1.1487354915353071849
1.1486622963824386634
1.1485809405027400665
1.1484917863417587469
1.1483953157414201751
1.1482921463631905468
1.1481835454872684199
1.1480721671142688489
1.1479631034574120374
1.1478645630338186745
1.1477866240659106989
1.1477399921362483326
1.1477344796252395565
1.1477758705700589204
1.1478636023756945139
1.1479905003438963806
1.1481416353821527476
1.148298414137918666
1.1484413629905998455
1.1485539511150066883
1.1486280709860210436
1.1486610861448818266
1.1486562331781080548
1.1486206445138908983
1.1485650373893065979
1.1485025530839536589
1.1484471150829107522
1.1484112886120250163
1.1484063882085240316
1.1484391362590815611
1.1485144830741669253
1.1486269377095983391
1.1487653447872288037
1.1489124421868153192
1.1490482383227238472
1.1491538381132095914
1.1492162184119361079
1.14923244930614743
1.1492065865299916361
1.149150943905870248
1.1490841869764389926
1.1490244226692531981
1.1489871968668847746
1.1489834116010151366
1.1490163304041052239
1.1490827111036592267
1.14917502902127322
1.1492820000996404328
1.1493906499270087895
1.1494896140543968688
1.1495713687647477474
1.1496317991490867527
1.1496689979564780337
1.1496832875703393295
1.1496763951759372269
1.1496506137515289936
1.1496080010417522033
1.1495491549996772473
1.1494744727156112063
1.1493870487522448443
1.1492941053453971101
1.1492061961378337021
1.1491350843509482438
1.149092314518040725
1.1490874393487571226
1.1491250902315828242
1.1492031628104655283
1.1493131594638190673
1.1494421458245613898
1.1495756657491784658
1.1497005538119253742
1.1498079007762740389
1.1498947549090845488
1.1499630923974164531
1.150017906363208553
1.1500661025698677431
1.1526723074250539991
1.1505690199540905549
1.1494161816577210811
1.1506014587734831878
1.1509318725827233365
1.1500681920552930926
1.1491456661451653343
1.1492446761311239101
1.1497199331459104776
1.1493765860610143381
1.1486061993268568138
1.1483725365105073024
1.1488942086698947787
1.1498984709925139658
1.1507327073662476646
1.1508627754987248437
1.1503006111907130293
1.1497865914828673262
1.149684228906786565
1.1494106057319655179
1.1490082821708300642
1.1489767950405946895
1.1491621190965226607
1.1491868955901443083
1.1491961346966903523
1.1493670070679438133
1.1491271094581132495
1.148219274014580682
1.1473679412789326015
1.1473961827231542454
1.1481833440432289706
1.148965362967449888
1.1493840384944413735
1.1494580399871137111
1.1490851246299016442
1.1484456783658703038
1.148142366382164381
1.1483940791409144033
1.1486876108664045848
1.1486541880644145497
1.148421797752817719
1.1481178751331329035
1.1476168997533766625
1.1469853338958517774
1.1465353208292421439
1.1464336933209984259
1.1465457797985212363
1.1467200176927592192
1.146963990458166327
1.1471876821236395294
1.1471097927960067775
1.146616987709648372
1.1459271952257028548
1.1453942582610636691
1.1451964119860811309
1.1453157853884712303
1.1455922543055219176
1.1458424199492436291
1.1459173580035162399
1.145786329399903325
1.1454710176961779844
1.1451481736402659983
1.1449556728957059892
1.1449588243219201988
1.145144749352176472
1.1454494894517577297
1.1457853997952147651
1.1459754972213198609
1.1458587681061822572
1.145486286309512769
1.1450947992721376423
1.1448736297644219739
1.1448782771154688565
1.1450341807334747379
1.1451710715814125141
1.1450389311925270874
1.1445354520667256892
1.1438309698481603505
1.1432597141168121535
1.1431509881185482058
1.1435417775830030163
1.144215498987708246
1.144804953255584401
1.1450769675253709146
1.1450652469028195224
1.1449846407379959956
1.1450259460361913444
1.1451616552944141603
1.1452049299743285449
1.1450382817681394876
1.1447393485008305891
1.1444606986321808062
1.1442768494705031213
1.1441172111274551249
1.1438958110702928117
1.1436261389353186146
1.1434210484937097352
1.1433629553564905734
1.1434375337829230102
1.1435937195901106911
1.1438024626996827759
1.1440523696160735945
1.1443172959527103671
1.1445389168412223313
1.1446689835671215452
1.1447179814070689297
1.144732380983624509
1.144711908203371209
1.1446089542450637033
1.1443428208455561634
1.1439148701977923661
1.1434221142300542429
1.1429940619150127379
1.1427249470904050632
1.142653269204893185
1.1428241221984196674
1.1432613724431108793
1.1439197763097685989
1.1446489884673836102
1.1452467381915540923
1.1455654698012871506
1.1455775749828915888
1.1453511418477344552
1.1449750754996104174
1.1445143490476410442
1.1440242574109571461
1.1435805230970461643
1.1433016767418118231
1.1432758296413911836
1.1434938564191481358
1.1438350574750375532
1.144153252267768428
1.1443623205024244793
1.1444562744893540529
1.1444582052340825928
1.1443583227805358415
1.1441126611694636406
1.1437028822088435298
1.1431963733343204481
1.1427293657787600534
1.1424335025612588623
1.1423619978025769672
1.1424774611085193321
1.1427148370842461489
1.1430584572937430021
1.1435395784696105181
1.1441826344563106321
1.1449552795544999384
1.1457712666679957803
1.1465486764402712527
1.1472554820585740831
1.1478983452021114253
1.1484801437938894075
1.1489719215939468988
1.1493300513662909612
1.1495378763937504907
1.1496286195602942737
1.1496687947412260744
1.1497222919624043858
1.1498219304759702553
1.1499610848146331055
1.1500960980745706941
1.1501722952353647944
1.1501436922739727287
1.1499943558451291015
1.1497470399037903466
1.1494521418835914606
1.1491689544521912492
1.148944125803360583
1.1488031876593691738
1.1487447170991489376
1.1487531734152338636
1.1488110709519303576
1.1489087777654694023
1.1490505754035453823
1.1492561173176349953
1.1495484669474995698
1.1499289444061735477
1.1503566143731118743
1.1507504963776142848
1.1510229500956050686
1.1511201841580895877
1.151053142040344035
1.1508933569977382039
1.1507308732912540084
1.1506249973549020904
1.1505794226831014271
1.1505603125874179771
1.1505400872158877412
1.1499666659415015424
1.1500485803751023806
1.1500932919258237686
1.1500722313504276872
1.1499981686410429838
1.149909583724582296
1.1498404322680950695
1.1498014233553699448
1.1497795917040014579
1.1497508440456429835
1.1496963523323933121
1.1496117652016326627
1.1495043918569183283
1.1493873478709975
1.1492766894135193478
1.1491883934641322629
1.1491375064477982182
1.1491350220436964413
1.1491850569979147334
1.1492848170795741947
1.1494270094194998233
1.1496064851395417783
1.149820034963229709
1.1500590745544385651
1.1503021155715094093
1.1505114724763394474
1.1506445793838908642
1.1506740826083534657
1.1506014749219912741
1.1504584681800802404
1.1502941211950497014
1.1501541811088416001
1.15006693288018913
1.1500415479833874244
1.1500743435177942509
1.1501562169247601108
1.1502734983971873994
1.1504058882265628672
1.1505268386967866245
1.1506097505429884187
1.1506397297264230328
1.1506233106439978098
1.150589631486485187
1.1505798489874041746
1.1506312498007513767
1.1507636220757389012
1.1509737411807425822
1.1512370748624429773
1.1515147997657453338
1.1517648785883189966
1.1519527631112986832
1.1520589904432549933
1.1520788744751611077
1.1520189745280062787
1.151889812735800156
1.1517019144801121655
1.1514679122819726498
1.1512050144612975267
1.1509417037983309395
1.1507162641970929418
1.1505650424487503525
1.1505097940112656296
1.1505479865935244188
1.1506511598945310393
1.1507739958399474389
1.1508720938707042158
1.1509177858825236918
1.1509073279151784686
1.1508566657371221975
1.1507893775863893282
1.150728557881035341
1.1506867997936072179
1.1506694900107072854
1.1506783440868053603
1.1507141997933334476
1.1507761670559177869
1.1508564275479717942
1.1509361090365304303
1.1509895861142405149
1.1509942460043518508
1.1509433159386888157
1.1508512577840026569
1.150750110284771921
1.1506788943735766217
1.1506669390731667502
1.1507205897076908663
1.1508205877345707435
1.1509306386397024635
1.1510130969766023679
1.1510438535357103707
1.1510201456421931265
1.1509583474437550255
1.1508845915826917405
1.1508234368972223294
1.1507911493062163988
1.1507937933507543793
1.1508283922495627927
1.150885440214218125
1.1509521504930284586
1.1510156588290405555
1.1510651278334742553
1.1510932467035908111
1.1510977516564626644
1.1510806519054579411
1.1510450426587248707
1.1509926146124223045
1.1509228928309871431
1.1508347428794807321
1.1507302467371962607
1.1506183055675949234
1.150514411852720853
1.1504368643427185237
1.1504010166694904616
1.1504133292488756268
1.1504684879523368046
1.1505519998542506066
1.1506460619210978624
1.1507360983345127359
1.1508142317905123431
1.1508786701399400521
1.1509300019206116783
1.1509666139628174086
1.1509823881963707759
1.1509684435857934215
1.1509174175025858045
1.1508283019366902789
1.1507087137869960181
1.15057290897857456
1.1504372688181485618
1.1503149633234013294
1.150211903965344229
1.150125888037804911
1.1500491843986215823
1.1499728916069811291
1.1498907905963082765
1.1498010933831654956
1.1497062111159523923
1.1496110771496759195
1.1495206414058560807
1.1494383645478667422
1.1493661370547694212
1.1493054237920914407
1.1492582440958412082
1.1492274544843730233
1.1492161688689235266
1.1492267588351485763
1.1492599809100039199
1.1493143972510482254
1.1493863799104002688
1.1494703947609721251
1.1495601127722170354
1.1496488729654306127
1.1497298371331996503
1.1497963420147219171
1.1498424638749524807
1.1498643246802131568
1.1498610879426629516
1.1498359225334031652
1.1497965908333056539
1.1497539032188237584
1.1497189889164578513
1.1497003553987457103
1.1497009570296676806
1.1497169460939402619
1.1497384441108018382
1.149752836022792879
1.1497485094866046751
1.1497183740400951368
1.1496610832165263805
1.1495811621853591067
1.1494872567789715667
1.1493896349177497029
1.1492975219066012826
1.1492172669772813265
1.1491513988648958122
1.1490985681627468029
1.1490545565118626126
1.1490133405502938047
1.1489689752519174348
1.1489161793543287704
1.1488512027076915878
1.1487725244932835977
1.148680671484347604
1.1485773785995283536
1.1484649060676024312
1.1483461049020817768
1.148225007626090699
1.1481067668587574548
1.1479987383755176911
1.147910383000542156
1.1478524623407533323
1.1478352698212310745
1.1478659314303312211
1.1479457899467331305
1.1480692823417182336
1.1482243624720982478
1.1483920600404988743
1.1485511109659878315
1.1486835531258499099
1.1487760679250547113
1.148822961866339698
1.1488257243768931204
1.1487919591095538951
1.1487334192586728943
1.1486634367017052316
1.1485960753309532034
1.148543747324391795
1.1485156428211265034
1.1485167284170176849
1.148549254934421171
1.1486113532517270297
1.1486968824297729697
1.1487976610113084242
1.1489004601158305796
1.1489916984549348733
1.1490584703089135044
1.1490935406560223164
1.1490962243098954421
1.1490698401979169141
1.149024486717403537
1.1489749720594468752
1.1489364474518277692
1.1489226513795620654
1.1489426749900155666
1.148998280947236772
1.1490855065853307071
1.149196333936803871
1.1493186920653801764
1.1494380973662594592
1.1495412570477512304
1.1496187276823037759
1.1496648095660000344
1.1496781165604508246
1.1496613618295599135
1.149618789502463656
1.1495552179474495258
1.1494763983452478406
1.1493882909294692585
1.1492961842527185112
1.1492051846809974158
1.1491221761567800286
1.1490563201337358201
1.1490169975787318801
1.1490111482875089433
1.1490416092336772635
1.1491064663225702969
1.1491991181426768343
1.1493099928658416786
1.1494294235653754743
1.1495494650965034644
1.1496638315472265113
1.149768341495791546
1.1498620453695143073
1.1499456859312051638
1.1500195067208147659
1.153088196792558584
1.1517413661541653358
1.1521869689716528473
1.1516572388474239919
1.1500435302533997817
1.1492228264956421135
1.1493104240061278176
1.1492439728493319961
1.1486612650243310796
1.1482586085279775645
1.1484381550249938009
1.1486038433376428713
1.1486385406136256915
1.1489946544763205427
1.1495969322630408271
1.1497471736593325442
1.1491826956687536399
1.1486964206949925593
1.1488028132065977172
1.1489468001455469537
1.1488305501043569734
1.1489245309197229084
1.1491319555828829468
1.1490032488239150243
1.1487612135832716564
1.1487882294112439219
1.1487070808144517198
1.1480867966867676078
1.1474370012078745074
1.1474976119575301947
1.1481547774013842744
1.1488281653812451033
1.1493254532855925465
1.1495416202689980878
1.1491415269353806305
1.1482575684568068208
1.1477250319096110598
1.14793491163872452
1.148364161377031456
1.1485166870620238111
1.14845770734567032
1.1482799081606660518
1.1478233796074446271
1.1471526747400389024
1.1466247529284845363
1.1463979908063079982
1.1463498046507178962
1.1463981168949011202
1.1465980443335070937
1.1468672268725392804
1.1468929634438735921
1.146473691702293296
1.1457870917273444977
1.1452587614971179164
1.1451429924297897855
1.1453637443422737263
1.1456821362654243668
1.1458701476892889648
1.1457715064093314528
1.1453811779373817004
1.1448169351438142183
1.1443559736633170942
1.1441797050437261252
1.1443731318065526459
1.1448709237118008808
1.1454689515111338149
1.1458812893990044657
1.1458833416073646028
1.1454897283147533749
1.1449631763811995988
1.1445875035406281039
1.1444568849722236425
1.1445522292833021361
1.1447983965586274735
1.1450388329060847692
1.1450225391278792131
1.1445736018988463822
1.1438623932727340904
1.1432710248672257602
1.1431676387363773895
1.1436557254202368572
1.1444665807531295698
1.1451560860859588686
1.1453915711689937051
1.145168167851971619
1.1447772229575623459
1.1445371391181125009
1.1445545536678440879
1.1446614383009015015
1.1446306446330218876
1.1443881770566077805
1.144052269091493379
1.1437487021564012313
1.1435189668932175255
1.1433449369996184775
1.1432323654250267086
1.1432155246036845853
1.1432952862241854142
1.1434476028954390081
1.1436253419613127136
1.1438185430938800913
1.1440179453049075242
1.1441901180492393131
1.1443110381390173558
1.1443836882895692675
1.1444298125726926063
1.1444741079199489686
1.1445119578684728179
1.1445012028677550298
1.1443518170768918196
1.1440312965023431424
1.143603096428879029
1.1431848742017129972
1.1428915951061908718
1.1427819188382115634
1.1428769061848873534
1.1431903349621845845
1.1436951506146426638
1.1442914321942618816
1.1448185893618556541
1.1451300595358189227
1.145164106334685572
1.144962374006187833
1.1446126231825766162
1.1441936133021843869
1.1437729112670891318
1.1434282915324947005
1.1432544736928478279
1.143309024705082555
1.1435515949647991896
1.1438491147168525774
1.1440690464041525232
1.1441548583315075405
1.1441215122029531059
1.1440058887403354859
1.143812879345738942
1.1435230507003253386
1.1431394892732320567
1.1427295429714643404
1.1424095318743285876
1.1422668483525015848
1.1422959806993095988
1.1424278589050187449
1.1426074128125787155
1.1428613429526581768
1.1432682160205542843
1.1438763782715202222
1.1446568199094349083
1.1455250985120886131
1.1463971024915915464
1.1472269082755754965
1.1479892377803231351
1.1486476549043860285
1.1491534521157988902
1.1494715029499222858
1.1496150670212803568
1.149649107391977898
1.1496586054017223777
1.1497095843687397121
1.1498312927198037769
1.1500097395970871883
1.1501907756313864972
1.1503023162494130371
1.150290437767408136
1.1501390027694384788
1.149884248064780401
1.1495903630760477832
1.1493256674530401007
1.1491366838175611775
1.1490386523403459673
1.1490162277696447379
1.1490412478211491365
1.1490952805780743073
1.1491790809772230997
1.1493055966129881451
1.1494975895645687114
1.1497678806032243237
1.1501000690723259812
1.1504427158827337241
1.1507275898217363963
1.1508958305933909561
1.150923570422381248
1.1508386170505016111
1.1507054059216701436
1.1505899614129224684
1.150522524762500387
1.1504979787168061467
1.150495459733803294
1.1505029513224660498
1.150191519989522515
1.1502247872127884243
1.1502479911893277453
1.1502350888553378727
1.1501862217931342336
1.1501210421272798357
1.1500627520569819406
1.1500226347321969023
1.1499975368970896117
1.1499760807261365514
1.149945988323163748
1.1498996894861392981
1.1498344090061662914
1.1497489955315465249
1.1496472105218473736
1.1495409379478389589
1.1494517558060655116
1.1494068583119640969
1.1494288531015735
1.1495263908625996674
1.1496883605454120136
1.1498903018975192847
1.1501062712456500137
1.1503156910902800902
1.150503946774765307
1.1506556835057002441
1.1507508628147467
1.1507719972938330599
1.1507147090467035877
1.1505937279902218595
1.1504407376115488582
1.1502935474268640714
1.150183917394627775
1.1501317587374366713
1.1501443573800305131
1.1502168691284042623
1.1503337700643148089
1.1504702125147063807
1.15059537329137207
1.1506819964916530363
1.1507176725618057933
1.1507096139702954751
1.1506823586483276856
1.1506700498008688438
1.1507045479351039052
1.1508041066322147739
1.15096865105383106
1.1511810600335090626
1.1514117859915200537
1.1516264033147873835
1.1517936529085448516
1.1518920847415012876
1.1519114565491666013
1.1518511941668574394
1.1517164479697201696
1.1515173407851144738
1.1512693601114849518
1.150996190253627649
1.1507323125078499082
1.1505175691179023723
1.1503852875976843251
1.1503508812639771097
1.1504047296592443406
1.1505126069445346104
1.1506293904017450558
1.15071599245086853
1.1507523943467803385
1.1507422016648845009
1.1507045777462958647
1.1506647514487016171
1.150640866872873147
1.1506393147487934403
1.1506589986571005291
1.1506981836399685637
1.150755502183621326
1.1508273663978807466
1.1509039404416998575
1.1509669283359722503
1.1509955876582160794
1.1509745294399047477
1.1509025950673437144
1.1507980222864748754
1.1506911860873334508
1.1506146645268313655
1.1505915262161185986
1.1506251225834556173
1.1506982851054505801
1.1507829361147259295
1.1508523276899098597
1.1508904535982351636
1.1508975607556388709
1.1508863517993161985
1.1508749034036898085
1.1508785255824718341
1.1509032010303263949
1.1509471169045277783
1.1510045544298417308
1.1510677005498994863
1.1511288308196241381
1.151180506151559646
1.1512150906369207348
1.1512274244130855649
1.1512164061025043083
1.1511844771063111104
1.1511354534543065675
1.1510727123670105865
1.1509986934539599979
1.1509165245759918061
1.1508318029649937664
1.1507547216594908868
1.150698768646927439
1.15067606078943796
1.1506922346509431687
1.1507432180305952052
1.1508153069240885102
1.1508900588853807623
1.1509518632649129444
1.150993655009239891
1.1510179446753694421
1.1510327418559258561
1.1510445977350061142
1.1510528906835688634
1.1510480798823319315
1.1510162039593276884
1.1509459267753483491
1.1508349974672547056
1.1506928575640518186
1.1505380934009414862
1.150392458721019473
1.1502729068792614253
1.150186547232361356
1.1501291725767646135
1.150088306228796764
1.1500489423268429601
1.1499991058973093594
1.1499335430530115421
1.149854118586500995
1.1497679516455323601
1.1496848786458293556
1.1496136607407354546
1.1495597555051595418
1.1495247885017119138
1.1495084512117208497
1.1495090352584149684
1.1495241309231105653
1.1495513416024283337
1.1495894348762927262
1.1496381868404583759
1.1496974958180679049
1.1497667792015724419
1.1498438806228463704
1.1499247930685754238
1.1500034346308345423
1.1500724322525597287
1.1501246334700179208
1.1501550549927863631
1.1501629839893370288
1.150152220556233118
1.1501301945146162886
1.1501060868672872139
1.1500880954505152687
1.1500811846746314959
1.150085390934360019
1.1500952443566918593
1.1501014245301408589
1.1500933954031220541
1.150062096037414161
1.150002681489825429
1.1499155645209904186
1.1498061361457767582
1.1496837413448872667
1.149559573160360948
1.1494440556244946983
1.1493453737414582871
1.1492679528053262317
1.1492118011677694422
1.1491723656954984101
1.1491418317211121725
1.1491109367516436635
1.1490712664664997078
1.1490164683528045764
1.1489433036153073875
1.1488523013929681227
1.1487468117601462581
1.1486315884595594827
1.1485115342621545764
1.1483913467223698657
1.1482759604004761922
1.148170997319467368
1.1480837980103959506
1.1480235571570087671
1.1480001502588585982
1.1480211681741248064
1.1480894496963633955
1.1482013550511940281
1.1483467037795003218
1.1485098190738680657
1.1486717522725089502
1.1488117691663024544
1.1489156307950969538
1.14897628351792358
1.1489930950611699778
1.1489731225709016726
1.1489260544226607141
1.1488642173931324919
1.1487977109494367234
1.1487362996960861494
1.1486847703061608961
1.1486480460108543511
1.1486277536481346306
1.1486270509040550358
1.1486480393152134205
1.1486916067490338111
1.1487547013923289363
1.148829112377095063
1.1489029733871627403
1.1489631214683282412
1.1490003262415098284
1.1490102677034801371
1.1489946995562267951
1.1489624247150169722
1.1489273381737974411
1.1489056972406557211
1.148911659866065138
1.1489527753341237659
1.1490287552141917882
1.1491325937473617635
1.1492523406165129352
1.1493736757803465487
1.1494817992997210521
1.1495638262019070019
1.1496112315249953362
1.1496213552879777087
1.1495976180481526363
1.1495465844658889765
1.1494753820137391109
1.14939146533083969
1.1493026973102833388
1.1492162036849249418
1.1491373360991254948
1.1490702718504326452
1.1490196705107702524
1.1489908972384019759
1.1489881377931858708
1.1490122768259922736
1.149061100718999473
1.1491307361999880676
1.1492162361671378612
1.1493124721414427203
1.1494155477116361208
1.1495233928423733705
1.1496339628463321247
1.1497435814286824929
1.1498470114092775862
1.1499381091796065935
1.1500102768181428292
1.1545761478509251052
1.1495862467222619507
1.1492110892081859319
1.1483756284119572832
1.1476510010564351383
1.1480689097600671467
1.1493324186345557081
1.1500878958832627674
1.1493839160868335458