/*--------------------------------*- C++ -*----------------------------------*\
  =========                 |
  \\      /  F ield         | OpenFOAM: The Open Source CFD Toolbox
   \\    /   O peration     | Website:  https://openfoam.org
    \\  /    A nd           | Version:  12
     \\/     M anipulation  |
\*---------------------------------------------------------------------------*/
FoamFile
{
    format      ascii;
    class       volScalarField;
    location    "0.006";
    object      rho_0;
}
// * * * * * * * * * * * * * * * * * * * * * * * * * * * * * * * * * * * * * //

dimensions      [1 -3 0 0 0 0 0];

internalField   nonuniform List<scalar> 
75962
(
1.1513942375434023102
1.1479627081000103317
1.1486435902278788745
1.1507619047209804997
1.1508770444702092206
1.1505300887136766796
1.1505920911369638127
1.1508376861535962732
1.1511336783819157148
1.150247753886599611
1.148827328804539416
1.1484601776201415202
1.1493364690469500822
1.1505634146369709825
1.151283805381556169
1.1511517995522952962
1.1506403483668048437
1.1503521160763048314
1.1501050295522141642
1.1495294624296652497
1.1489955942123739607
1.1489238052848234073
1.1490972852090086676
1.1492909480747617312
1.1496078213885405628
1.1498557395824466898
1.1494543085784987291
1.1484398460559051003
1.1476431996336615704
1.1476983551707060638
1.1483560204530121052
1.148974857470358435
1.1492676450388001896
1.1492360794598277529
1.1489149686633148839
1.1485516127778296891
1.1485152977586106093
1.1487175245874037266
1.1487726954908956678
1.1485613018638920479
1.1482792988290169145
1.147936057126861753
1.14738002388589444
1.1467136141211839995
1.1463073112002084564
1.1463599784154048233
1.1467190597429615107
1.1471483816840621905
1.147481177413662623
1.1475565874683468781
1.1472410510817030449
1.1466038983453539224
1.145951457540003382
1.1455411890613391712
1.1454286068717680624
1.1455368938532970446
1.1457445279001490235
1.1459381113268434227
1.1460441796307261342
1.1460181441466337215
1.1458822621305078115
1.145684888753517594
1.1455480253425207593
1.1454968343156988198
1.1454960470549484519
1.1455845967409079567
1.1458124052057390152
1.1460691863090965992
1.1461208539883958046
1.1458504102466913199
1.1454254393523732869
1.145147493201720712
1.1451403483466908728
1.1452853105346945117
1.1453282482145452637
1.1450312761616410206
1.1444180271534971638
1.1437099851995238264
1.1432747074329951964
1.1433078033764176862
1.1437516312290734177
1.1442813026997760151
1.1446307539415052634
1.1447283668957821678
1.1447448468436456359
1.1449022934050545608
1.1452273216202728534
1.1455256146757664126
1.1455842888039027283
1.1453606505641957813
1.145035887775278427
1.1448052989156511927
1.1447108844352182899
1.1446122361891479802
1.1443776251887403106
1.1440351172002312108
1.1437220948264359421
1.1435629511407161552
1.1435670049907928902
1.1436707317240615289
1.1438344190351239504
1.1440603044205863714
1.1443447544108735769
1.1446388867404353462
1.1448760679908875915
1.1450214877192679275
1.1450670419160786651
1.1449871727778231367
1.1447362668777381067
1.1443032194180464689
1.1437473832988185318
1.1432056632722398248
1.1428035339837354645
1.1425994385071092108
1.1426083849718522423
1.1428762696297554147
1.1434261287267992735
1.1441925392500293945
1.144991885808494203
1.1456064566711745556
1.1459097751371909446
1.1459027427260854992
1.145665970091424013
1.145278532002622196
1.1447873048276184793
1.1442347978760902816
1.1437122957790368805
1.1433567376568480878
1.1432739270306382373
1.1434681349821733676
1.143829914365302125
1.1442121985041424637
1.1445181455040749352
1.1447270171444325904
1.1448390989706318521
1.1448211088291295745
1.1446112051462196124
1.144192313919270676
1.143641500644353215
1.1431120264133800557
1.1427552117046368974
1.1426506311157935691
1.1427835142428843795
1.1430899762722681601
1.1435173036100827471
1.1440483453021272897
1.1446794377799289766
1.1453816928409401577
1.1460959654417492981
1.1467693721231304593
1.1473878720542178833
1.1479669524612106102
1.1485182031646290479
1.1490172757465364484
1.1494127209567137626
1.1496668653155646123
1.1497876611821113979
1.1498236523872307213
1.1498355413932681568
1.1498645861472138741
1.1499196235073303463
1.149981440517175546
1.1500176922444753647
1.149990489102245661
1.1498742998998843223
1.1496655321869633237
1.1493904857385750518
1.1490980706038862458
1.1488418633826384951
1.148665344696729429
1.148586261088391014
1.1485981117942949403
1.1486784385279000809
1.1488029902947849425
1.1489587044966449447
1.1491565339709155502
1.149426048420700841
1.1497832541277537288
1.1502066249084448302
1.1506282988320548633
1.1509569683865661371
1.151123944585383807
1.151120812533870108
1.1510058914227245808
1.1508668304648652647
1.1507650406354525963
1.1507051695293939453
1.1506531671776183412
1.1498871146971569868
1.1499564968747177929
1.1499328297237561003
1.14983761822865449
1.1497234822238906471
1.1496353642319709909
1.1495878246218798058
1.149564794359309472
1.149536054892026149
1.1494777169629375457
1.1493826834609190968
1.1492599416386697353
1.1491301662445119192
1.1490176299184986508
1.1489430345253996979
1.1489183300047529634
1.148943801943912435
1.1490109224228404194
1.1491092056373173325
1.1492360233451681673
1.1494009124993795901
1.1496160279971854301
1.1498784029830302345
1.1501567552429259322
1.1503950033502603478
1.1505361490335439534
1.1505505393188406593
1.1504513412570962494
1.1502881144628152033
1.1501236649988191285
1.1500072134791963219
1.1499600990485592256
1.1499787317833960465
1.1500465767872349865
1.1501476201515847819
1.1502697844511706737
1.1503989144297832592
1.1505157533832972572
1.1505979559652055322
1.1506298403099814998
1.15061482305224283
1.1505813287820199076
1.1505729364628363154
1.1506301473404567659
1.1507753717837354568
1.1510044109930914757
1.1512879363185613002
1.15158073654887394
1.1518349504837830377
1.1520152372559033793
1.1521068009632224882
1.1521144014472464168
1.1520535125724300496
1.1519411079506272078
1.1517866059987722505
1.1515975859651672586
1.1513817147848766087
1.1511550881010055303
1.1509484374615452928
1.1507968555151801837
1.1507252906622338351
1.150738289440676132
1.1508155000300945847
1.15091824088761574
1.1510038306886227755
1.1510416995861945111
1.1510222054859988727
1.1509559875122790107
1.1508640468211681629
1.1507677909065809896
1.1506860487770655954
1.1506295839060742825
1.1506043451443719317
1.150615445948237392
1.1506633838473847575
1.1507403576111789878
1.1508276880181769197
1.1508980529856753794
1.1509251267789097906
1.1508974225191694885
1.1508258315825703466
1.1507419695907634694
1.1506859499940782499
1.1506886887481766468
1.1507579214517384969
1.1508737045642365437
1.1509966074890300991
1.1510844588928008658
1.1511087486029654148
1.1510640347679133022
1.1509668847063125874
1.1508468362441661714
1.1507354305917623094
1.1506569503009305144
1.1506235540979308229
1.1506347279583242216
1.1506798917181582098
1.1507429877553394526
1.150807274891890275
1.1508593253913779186
1.1508917390535853276
1.1509028760695092508
1.1508944960142371006
1.150868787605504151
1.150825587708126152
1.150761746669486163
1.1506735315248712848
1.1505611392938637216
1.1504324518232000862
1.1503037556832667043
1.150196253600548113
1.1501304250104482652
1.1501192765661460982
1.1501638855936187067
1.1502537342081291527
1.1503706325832996349
1.1504944452280214673
1.1506088591494296747
1.1507040256500176145
1.1507757752841032417
1.1508228095750610009
1.1508438501420237277
1.1508368879513175553
1.1507998443560656376
1.1507333110890733963
1.1506423074104072946
1.1505353535808862109
1.150421938412052647
1.1503097964075283954
1.1502027381002495332
1.1501002899023420323
1.1499993320645074402
1.149896239250209895
1.1497891772336004124
1.1496790074651208613
1.1495692748600057076
1.1494641081628038659
1.1493661921374489499
1.149275901612692552
1.149192222347347192
1.1491155919203845936
1.1490489765565039537
1.1489978393145661162
1.148968622550059715
1.1489668196968194636
1.1489945370400069802
1.1490492511246017671
1.1491242393728706706
1.149210539454379898
1.1492990651643888445
1.149382224136214603
1.149454433289337052
1.1495121373213215143
1.1495529464068543479
1.1495747824788322689
1.1495760741266649596
1.1495569404642427269
1.14952051922508236
1.1494740394478792922
1.1494283267148861505
1.1493945035603472249
1.1493802035571059061
1.1493866100622027737
1.149407932061099924
1.1494329775173632857
1.1494492410117886916
1.1494465658402297503
1.1494198602675795851
1.1493702848797262561
1.1493037256003555413
1.1492282859953615315
1.1491519864108130644
1.1490810501812385169
1.1490179700189080414
1.148961643795481935
1.1489085482662246829
1.1488546387048530484
1.1487962226613614991
1.1487306867882358663
1.1486569137362927506
1.1485750469665954032
1.1484853869979021468
1.1483883572680833041
1.1482846074456172225
1.1481755207334061186
1.148063868066337978
1.1479548416788238896
1.1478567477461196766
1.1477797715940236678
1.1477346380455730745
1.1477310489985321773
1.1477745865871615827
1.1478643487420248093
1.1479928123057290268
1.1481447532656263721
1.148301329623138356
1.1484431551944109806
1.1485538645644848277
1.1486257420044829747
1.1486566439538550277
1.1486501039399039659
1.1486134928145705913
1.1485574576020058934
1.1484951787298560699
1.1484405516846412088
1.1484061897243142969
1.1484031910945753374
1.1484381235362270957
1.1485155853413795413
1.1486296490992358166
1.1487689128519082971
1.1489158875983112029
1.1490506050314623909
1.1491542472735256641
1.149214220530996533
1.1492281203325462879
1.1492004347131039577
1.1491438874492403421
1.1490772454860800345
1.1490185406562172243
1.1489831841864077688
1.1489817099529451294
1.1490169266992684705
1.1490852559906989949
1.1491789326299137741
1.1492865560206844133
1.1493951934099855272
1.1494936267490369897
1.1495745550971803173
1.1496340678068899255
1.1496703542935573505
1.1496837716094081561
1.1496760720382299681
1.1496495508545623299
1.1496062508703193128
1.1495467938801451346
1.1494716576435857203
1.14938405057005677
1.1492913421369364002
1.1492042424755009034
1.1491345570012170274
1.1490936820070982716
1.1490909240645590383
1.1491306758590649206
1.1492105897857807228
1.1493219292301861678
1.1494516031568546843
1.1495851490459709776
1.1497095632873488569
1.1498161806252391592
1.1499022990955021228
1.1499701149189873739
1.1500247391790323626
1.1500730687278675202
1.1525763089889000668
1.1505003258498183172
1.1494242293667089605
1.1506259088556221037
1.1509104964609748745
1.1500218612526216244
1.1491174523234262139
1.1492477371722782387
1.1497165271228766414
1.1493514884326054837
1.1485865921954883095
1.1483739052882153686
1.1489112929311435796
1.1499164644789183765
1.1507389865848935973
1.1508559780096059288
1.1502923271764498026
1.149789710196712722
1.1496849215073441375
1.1493947664053680846
1.1489904416742167115
1.1489696179048975999
1.1491574206748558229
1.1491818456363762646
1.1492004562870989925
1.1493715634109435975
1.1491116416313307269
1.1481875724867345312
1.1473461965564828446
1.1473978990102597919
1.1481959274345980848
1.1489733053784014771
1.1493881669033920723
1.1494589033714615045
1.1490788013516046728
1.1484399614213449681
1.1481477750529764936
1.1484022489807814704
1.1486831032253161933
1.1486397952196265582
1.1484089912832184943
1.1481086113286156358
1.1476077632345971224
1.1469786159840773543
1.1465330214670748088
1.1464316083286139047
1.1465385353621611042
1.1467097596890707401
1.146955652138709425
1.1471802398233019726
1.1470982697428488972
1.1466027340799873624
1.1459164990759964642
1.1453903752104823699
1.1451983582030800246
1.1453186338365961561
1.1455929875282420127
1.1458403150880469568
1.1459141129917735924
1.1457842893955594299
1.1454705463229606366
1.1451486409344786566
1.1449534417753453042
1.144951933902913499
1.1451350731574823083
1.145441822870416626
1.1457830001857958191
1.1459761141992772515
1.1458581770584204129
1.1454821959654541974
1.1450872069089153005
1.1448636241618976861
1.1448679884953600894
1.1450267211652547239
1.1451662087544138835
1.1450337069208109675
1.1445270101084841219
1.1438226254136569793
1.1432561119727528975
1.1431559938658499842
1.1435538908675166869
1.1442290455428552054
1.144813479374401588
1.145079303605336829
1.1450646325333595499
1.1449853721450364841
1.1450282985518829282
1.1451608621068312122
1.1451965934346532983
1.1450239483234108118
1.1447253241448749339
1.1444516770125077176
1.1442715761333208668
1.1441106352401986257
1.1438849122817213999
1.1436130908303219211
1.1434102678340749559
1.1433574204268290853
1.1434371393413507167
1.1435974499538601457
1.143808681803240912
1.1440587832504587329
1.1443207513055606572
1.1445365516782617377
1.1446609574794204267
1.1447077266157974496
1.144723895730277663
1.1447063319395371916
1.1446042499663380276
1.1443367308552718775
1.1439072459205974486
1.1434148441809321994
1.1429892382456032784
1.1427235649820735031
1.1426552100674325363
1.1428303462235365195
1.1432714951904494605
1.143931270466667538
1.1446574833955593942
1.1452485736266861949
1.1455609072494230549
1.1455700131298991451
1.1453444828570080727
1.144971128691176343
1.1445124509003550273
1.1440230537492239726
1.1435800582646249435
1.1433033808560977285
1.1432803337548607114
1.1434996045919449958
1.1438391675776529155
1.1441543268942029332
1.1443616692699591919
1.1444566172270207449
1.1444609476994793695
1.1443622978485517017
1.1441153139043078735
1.1437030988469885084
1.1431956986244111718
1.1427305839351185046
1.1424380466364238984
1.1423684926788817418
1.1424827917695723478
1.1427172219167389677
1.1430589514475633095
1.1435407332661520208
1.1441862104133553313
1.1449608150687626829
1.1457770202990444908
1.1465536691412236969
1.1472601553678991593
1.1479034606268248009
1.1484854989614374787
1.1489761224090249137
1.1493318262816463182
1.149537358650722485
1.1496275066493883976
1.1496692071865382001
1.1497256159120776697
1.1498281625979489551
1.1499688210850429471
1.1501030820144828581
1.150176426654459183
1.1501436925330901229
1.1499904332274870633
1.1497406714548039641
1.1494454691998101659
1.1491639049106971981
1.1489418558672470638
1.1488038831816833607
1.1487477235112395491
1.1487576385034827808
1.1488163557419976968
1.1489147739675158455
1.1490578964537332407
1.1492658263798483098
1.1495613268989643974
1.1499444370721003672
1.1503724324831592352
1.1507633195649547009
1.1510299032370558958
1.1511203385310602165
1.1510481181174434528
1.1508863891560017212
1.1507249873325804401
1.1506215078218164916
1.1505776998523082888
1.1505590774105944885
1.1505389144484721164
1.149971638664421647
1.1500535724569349583
1.1500965728476246763
1.1500734909756831215
1.1499983667383635311
1.1499099780391359715
1.1498415824946839336
1.1498029541074079596
1.1497805371828817567
1.1497503348400017753
1.1496941424486502026
1.1496082739713953114
1.1495003637440450728
1.1493836022092684956
1.1492739622465808491
1.1491872741195152674
1.1491384159168562817
1.1491381183216768935
1.1491902458502576412
1.1492918042476973906
1.149435501111099045
1.1496163463336932509
1.1498310607711732523
1.1500706511692597722
1.1503129625100589895
1.1505197955079551342
1.1506488053323835619
1.1506736092247764613
1.1505970049537894706
1.1504517815446961837
1.1502873286981587508
1.1501489671296789563
1.15006424005334007
1.1500416792880607808
1.1500772405440551349
1.1501615687368582641
1.1502806511750931495
1.1504137857037550763
1.1505341912339113186
1.15061549788988704
1.1506435706548299169
1.1506259798151616813
1.1505926748666790438
1.150585017767994378
1.1506398253254792596
1.1507759804087955846
1.1509892741852478792
1.1512543712438505494
1.1515320138335980449
1.1517802290476428784
1.1519649229270312318
1.1520672861799401421
1.1520832025895231254
1.1520196397937940702
1.1518872232060519689
1.1516966238798058697
1.1514606764616397427
1.1511969760968805421
1.150934523501366824
1.1507117161051954035
1.1505644513404083007
1.1505135259252154967
1.1505552327495409681
1.1506601399762821369
1.1507825859914875277
1.1508786726855879667
1.1509217155756559237
1.1509090436464382012
1.1508571821059605522
1.1507898472061226514
1.1507297748545557425
1.1506890236040410169
1.1506727089351369564
1.1506824142967646551
1.150718938821471804
1.1507812728652080381
1.1508612481589601817
1.1509396289641249389
1.1509907473187843685
1.1509924792724202103
1.150938945453590545
1.1508454985192315689
1.1507447361453284618
1.1506755592239732433
1.1506664397079908735
1.1507225094300590484
1.1508234821531737602
1.150932636912246787
1.151012660082606498
1.1510403078300397439
1.1510138014912634219
1.1509502326036595843
1.1508759444492375756
1.1508153050246334725
1.1507842054464103576
1.1507883050151652693
1.1508242704315887472
1.1508823372157970244
1.1509495796433963921
1.1510131111163024453
1.1510621301259922333
1.1510894483363447449
1.1510929995105327883
1.1510749348735478392
1.1510383750378752055
1.1509849793678079699
1.1509142631880517893
1.1508252214529091084
1.1507202415078869873
1.1506085553135947386
1.1505058333402726767
1.150430315124741254
1.1503969924971639838
1.1504117315443391778
1.150468653801374419
1.1505529581918620963
1.1506468969540051273
1.150736247125755618
1.1508135284339779947
1.1508772099606656703
1.1509278710343378016
1.1509636864879200235
1.1509783139482430148
1.1509627962800272893
1.1509099372468662992
1.1508190953073571539
1.150698256817741516
1.1505618881421775246
1.1504263507628025298
1.1503045445884425568
1.1502020122005836011
1.1501162683288468358
1.1500395036126294102
1.1499629307677532442
1.1498805457395031571
1.1497907631513890614
1.1496960953740593681
1.1496014317622569312
1.149511628497977167
1.1494300727657882355
1.1493586396261741278
1.1492988249738327333
1.1492526973303514026
1.1492231578940772518
1.1492133036174434491
1.1492254139148161407
1.1492600917338189337
1.1493157283187827034
1.1493885645590620204
1.14947301329463758
1.1495627748601542351
1.1496512279575401561
1.149731576003313327
1.1497971819711618746
1.1498421734768140556
1.1498627880741765228
1.1498583659521266487
1.1498323102229344173
1.1497926030599829872
1.149750148669361316
1.1497160122859524378
1.1496984865504014106
1.1497002238326474721
1.149717057530019293
1.1497388827266805666
1.1497530009130683126
1.1497479109815378351
1.1497167466360245225
1.1496584301940502293
1.1495777140665570659
1.1494833963078261441
1.1493857509916933779
1.1492938928634144347
1.1492140141111861773
1.1491484779093226187
1.1490957857768338002
1.1490516215128241395
1.1490099554173127672
1.1489649126925642886
1.1489113211838362094
1.1488455201066414268
1.1487660546832585418
1.1486734781990091125
1.1485695151412056436
1.1484564222743369744
1.1483371364649976876
1.1482158095946863874
1.1480976906862763176
1.1479901912470511505
1.1479028372851836082
1.1478464482694874516
1.1478312444998914899
1.1478641555883739578
1.1479462362029098088
1.1480715380070596332
1.1482276994050302221
1.1483955077753382756
1.1485536664724771416
1.1486843095138432602
1.1487745553635779761
1.1488191741383877442
1.1488200779686652542
1.1487851015015730916
1.1487261004672506548
1.1486562846368562063
1.1485896587362731669
1.1485384679484982318
1.1485118625934405134
1.1485145765786193284
1.1485487387236168466
1.1486121572310090677
1.1486986025215757401
1.1487996868750471879
1.1489021367887708447
1.1489924327798544113
1.1490577487094726372
1.1490912018753300927
1.1490924230933070582
1.1490650603500534022
1.1490194928158727894
1.148970535224937084
1.148933287421346483
1.1489213890040359534
1.148943607943267109
1.1490012913525584626
1.1490901399270823102
1.1492019081122264446
1.1493244517084681977
1.1494433599156295145
1.1495455279976101171
1.1496217414856277905
1.149666495060363669
1.1496785477443047796
1.1496607182613012288
1.1496173227346710988
1.1495532056030506318
1.1494741175799385591
1.1493860078794848611
1.1492941625223522806
1.1492036749479586089
1.1491214795542026295
1.1490568414000721376
1.1490191392306998708
1.14901511499501785
1.1490473290517877469
1.1491136674222646175
1.1492074232308455706
1.1493189823959093498
1.1494386762278732128
1.1495586379420519307
1.1496727676369831173
1.1497770168597511997
1.1498704557236185675
1.1499538417985550875
1.1500274226350948314
1.153144099820869517
1.1517574933261072179
1.1522100600400433379
1.1516220768358684801
1.1499947565186205978
1.1492047141227144103
1.1493040681151733828
1.1492304077970090237
1.1486450083304229342
1.1482640029245116953
1.1484526858694505957
1.14860552482298095
1.1486324326375736415
1.1489961440842697549
1.1496011543704287572
1.1497420409219194504
1.1491750348015998817
1.1487039642427949726
1.1488163120320835642
1.148945051738187173
1.1488211993480439421
1.148920894072074983
1.149125787855043157
1.1489931740262531168
1.1487606583885849876
1.148796132847315743
1.1487028202516649245
1.1480662923242537232
1.1474214969754474858
1.1474993227137144647
1.1481639399429259818
1.1488372222954810198
1.1493364163347894458
1.1495472039199914338
1.1491319507354471607
1.1482435274896864996
1.1477244084790332312
1.1479426040317708413
1.1483634103370883306
1.148506892597281448
1.1484497415803942566
1.148274776979160805
1.1478150280525365456
1.1471431964522897928
1.1466173606745508895
1.1463889042685040387
1.1463362117907351934
1.1463851067167714071
1.1465915127431645093
1.1468651392952147194
1.1468872692468312646
1.1464623820901569395
1.1457770403045834939
1.1452560791002848184
1.1451461051192903806
1.1453664186330425601
1.1456788988545929531
1.1458611962726594768
1.1457594728508342374
1.1453695581137675052
1.1448099551030519461
1.1443537949563611367
1.1441807975257798358
1.1443749580724789094
1.1448720702356469658
1.1454692373922501503
1.1458794054451342248
1.1458783625142612284
1.1454836864012276632
1.1449578416433259243
1.1445815013110682834
1.1444487306703514662
1.1445438487721653065
1.1447941028309254197
1.1450387721349502002
1.1450215209012457596
1.1445678984674014789
1.1438538677163090362
1.1432673848377785664
1.1431747190642911338
1.1436731008695100176
1.1444863320164673226
1.1451683723396650638
1.1453912191528761166
1.1451589360249097016
1.1447673463124596882
1.1445318629255190057
1.1445522443351798803
1.1446563948719683523
1.1446196786791904554
1.1443742565017493984
1.1440399554395710435
1.1437398859656613404
1.143511626276010551
1.1433374287015123372
1.1432256541590730681
1.1432113571856057366
1.1432944884449811607
1.1434506343630004288
1.1436312157102588305
1.1438261363667585613
1.1440243608393405594
1.1441924891076595827
1.1443083314457445088
1.1443773432649255728
1.1444228894485579673
1.1444697878920504497
1.1445105940870270445
1.1445009100286946957
1.1443492259577625614
1.1440256438811076123
1.1435958230499618793
1.1431786788122570986
1.1428884499698004351
1.1427820308535803218
1.1428804696776535543
1.1431970086901037664
1.1437033402012579675
1.1442981050211173955
1.1448206788317136784
1.1451268225317101646
1.14515765420187976
1.1449560977394139805
1.1446086075397110537
1.1441920595336703137
1.1437730773845045107
1.1434301883017927715
1.1432589492786764396
1.1433154050958758141
1.1435574516090352137
1.143851319455464477
1.1440668259302975152
1.1441504015732082422
1.1441181174468983972
1.1440053962683907063
1.1438146506971997862
1.1435252427662001562
1.1431412528058546574
1.1427321234035854314
1.142414850385310654
1.1422747262428476489
1.1423035973861739301
1.1424319297687248742
1.142607174539333359
1.1428594618138427919
1.1432682798556816905
1.1438801813589178913
1.1446636936594423162
1.1455333050043361443
1.1464055653233526932
1.1472355536748122251
1.1479977699141639125
1.1486549380027670786
1.1491579477877920112
1.1494725748009537725
1.1496138756495821731
1.1496480792945402705
1.1496600212526488782
1.1497146702667222495
1.1498397965390716458
1.1500199915896482938
1.1502000172241453324
1.1503080009630057834
1.150291161354719538
1.15013519600356795
1.1498779333063740005
1.149584054513282938
1.1493214762106300775
1.1491355777736549371
1.1490403825071882071
1.149019743725665732
1.1490455115946318632
1.149100007146461655
1.1491845574886803139
1.1493126521620666836
1.1495070658366259853
1.1497798441839046646
1.1501132249840146926
1.1504547159808178325
1.1507359700519597112
1.1508989617777711789
1.1509215688669613975
1.1508333982348053492
1.1506997133253300536
1.1505857852132939101
1.1505203767841796214
1.150497361982841138
1.1504957042298764591
1.150503947607977695
1.1501928210641760852
1.1502270723710852351
1.1502499143213193999
1.1502361047142721784
1.1501865544341765002
1.1501213007297077517
1.150063320869641359
1.1500234104599755813
1.1499980907677056496
1.1499759860088341057
1.1499450383483498239
1.1498979696842104303
1.1498320909954393709
1.1497462745792299543
1.1496444418048068492
1.1495387376916288424
1.1494510283011747376
1.1494085120577290926
1.1494334292677479414
1.1495337395793241431
1.1496976387884103588
1.1499004141727666717
1.1501162490715040043
1.1503248372930086063
1.1505116942838840011
1.1506613047361873292
1.1507535365043652931
1.1507712270383794184
1.1507106920324225996
1.1505874561899520625
1.1504337428431998802
1.1502874038810790847
1.1501798670008263059
1.1501305738167535431
1.1501462846775958315
1.1502216186691274213
1.1503405437456550864
1.1504777769369511908
1.150602359973521116
1.1506874244271994012
1.1507213373836766568
1.1507121414903087597
1.150684993280602475
1.1506742367339872768
1.1507114092177432862
1.1508140785263230033
1.1509814046563811019
1.1511956040522541844
1.1514267068031434071
1.1516401814037304785
1.1518050031827802293
1.1519001451991013329
1.1519158341377140342
1.1518518662344459091
1.1517136907242251365
1.1515117342856222571
1.1512618388970308203
1.1509881755064050868
1.1507256087469510675
1.1505139406202260499
1.1503858514175824279
1.1503557316485295559
1.1504127628812845785
1.1505218809040376193
1.1506379014211944867
1.1507223886438766591
1.1507564315384628539
1.1507445476355901981
1.1507064019387258647
1.1506671301989879197
1.150644286762822599
1.1506437154064113049
1.1506641098653391797
1.1507036933179466409
1.150761083672835472
1.1508325745837186815
1.1509080878157524896
1.1509691679649207696
1.150995241194751717
1.1509713887882875305
1.1508972701665192151
1.150791840287877621
1.1506857322020196399
1.150611278359559897
1.1505907637926051645
1.1506265060170179915
1.1507005642162171366
1.150784684583673334
1.1508524697507167556
1.1508885946290401403
1.1508940137122303238
1.1508818694249292047
1.1508702976541169694
1.1508743574929483078
1.1508996147527319476
1.150944061372594529
1.1510018565912456534
1.1510651349540867994
1.1511261563999655166
1.1511774160302961079
1.1512112732831920603
1.1512227008854123422
1.151210757527201034
1.151178003920394266
1.1511282847797961182
1.1510649607986194187
1.1509904852454349022
1.1509081012861976934
1.1508236161342992876
1.1507474269792901111
1.1506930531177643751
1.1506723810005230479
1.1506906016603408727
1.1507431063586621711
1.1508157844265465286
1.1508901155484463352
1.1509507969592298604
1.1509913056345484339
1.1510146188789356358
1.1510289371904500744
1.151040622585847828
1.1510486198950808934
1.1510429796324535001
1.1510096358757457846
1.150937498418670879
1.1508247985415178682
1.1506814986633520093
1.1505264971963131693
1.1503815226944538175
1.1502631846014135242
1.150178071787842482
1.1501215196457295065
1.1500808452169755114
1.150041109469030598
1.1499906094026064451
1.1499244325531101651
1.1498447121834522999
1.1497587017624397721
1.1496762279597438905
1.1496059417669828306
1.1495531588225333941
1.1495193968920129901
1.1495042542345070835
1.1495059664727691473
1.1495220940649524266
1.1495502369975514334
1.1495891649460465711
1.1496386247368581834
1.1496985001613160282
1.1497681929064378359
1.1498455053867797648
1.1499263917156341552
1.1500047213901956056
1.1500730938906098544
1.1501243908832687879
1.1501537577411127256
1.1501606831691495447
1.1501491583347049907
1.1501267800405075015
1.1501027784806963083
1.1500852648369674913
1.1500790062139691905
1.1500837806003174624
1.1500938918782344089
1.1500998861296420905
1.1500911988206645731
1.1500588679616270404
1.1499982717066512539
1.1499100714701713244
1.1497998813814753749
1.1496771845940756407
1.149553191596252022
1.1494382345737934603
1.149340340873338695
1.1492637442616546739
1.1492082525500753043
1.1491691466568860758
1.1491385012701047508
1.1491070730015027213
1.1490665542454359116
1.1490107613853355328
1.1489366063066346335
1.1488447336164957502
1.1487385607148710154
1.148622847707473138
1.1485024924219411346
1.1483822412861994788
1.1482670895142541578
1.1481627120963260325
1.1480764909655654105
1.1480176663287746663
1.1479961097309854257
1.1480192695176461015
1.1480897127535043545
1.1482034448439157881
1.1483499523317464153
1.1485133477317592821
1.148674601974848386
1.1488131791254443392
1.1489150397660241598
1.148973594481783822
1.1489885994410158343
1.148967413076385391
1.1489198223109657881
1.1488580482319405984
1.1487919717602872449
1.1487311562487274585
1.148680302483999327
1.1486443678268438706
1.1486249508328800761
1.1486252702912584933
1.1486473102177015004
1.1486918345402177266
1.1487555615222708738
1.1488301854606424168
1.148903739044262462
1.1489630746636119163
1.1489991686756544365
1.1490080051381394988
1.1489917293483125071
1.1489594218683798488
1.1489250775519184167
1.1489048920305775514
1.1489127785384773972
1.1489559384506562445
1.1490337161002048827
1.1491387210669248287
1.1492587727652656682
1.1493795858705309065
1.1494865382323993241
1.1495669973429392119
1.1496127521522889747
1.1496214472649408656
1.1495966353188928899
1.1495448804063634896
1.1494733414311899544
1.1493895105414020374
1.1493012024736366516
1.1492154113041257446
1.1491373962383455432
1.1490712772051872026
1.1490217117848398054
1.1489940889526861767
1.1489925608292572701
1.1490178977384075676
1.1490677703346314775
1.1491382558961236171
1.1492244266338449421
1.1493212063183770866
1.1494246973871296014
1.1495328060635261469
1.1496435047683073449
1.1497530749392796956
1.1498561658440744626
1.1499465660213870066
1.1500177128870072707
1.154480207879132081
1.149541189243556305
1.1492088913292486385
1.1483491252260549231
1.1476509483504411246
1.1480988740818796057
1.1493750820684041081
1.1500935090786728043