/*--------------------------------*- C++ -*----------------------------------*\
  =========                 |
  \\      /  F ield         | OpenFOAM: The Open Source CFD Toolbox
   \\    /   O peration     | Website:  https://openfoam.org
    \\  /    A nd           | Version:  12
     \\/     M anipulation  |
\*---------------------------------------------------------------------------*/
FoamFile
{
    format      ascii;
    class       volScalarField;
    location    "0.006";
    object      T;
}
// * * * * * * * * * * * * * * * * * * * * * * * * * * * * * * * * * * * * * //

dimensions      [0 0 0 1 0 0 0];

internalField   nonuniform List<scalar> 
75962
(
300.11172971988997915
299.81133145563507014
300.07618226349279666
300.4522528950188871
300.4851964647836553
300.38934015440725034
300.37482767133263906
300.43882205849467937
300.50687761891231276
300.41817900014177667
300.262861118317403
300.21823896664335507
300.25910629936271334
300.26429911180309773
300.21383234759366587
300.19194562505316526
300.295485571832387
300.51228563284314532
300.69451746514982915
300.72542420700580124
300.6569247055738856
300.59573073361423212
300.57325848011038261
300.59539760200715364
300.68888383874690362
300.83198977907017024
300.9304560397304158
300.92888796303151366
300.86310665897002536
300.78781704576113043
300.71218159359551692
300.63554801343462941
300.59709622885037561
300.63729567510898733
300.74909397515114051
300.90073848702229498
301.05696818648362978
301.15576624597883892
301.15146874288296885
301.0763166111623832
301.02136158608908545
301.04182775150337648
301.12639805612940336
301.2382779564699149
301.34452521663280322
301.40718925666601535
301.39006916586947682
301.29309676486207081
301.15588322184379422
301.02720102038625782
300.94097131556657132
300.91671239205084021
300.95903907367210195
301.03943682001670368
301.10499061649960595
301.11426493200514187
301.06596557895881006
301.00140453100539162
300.98114866515675203
301.04498094487149729
301.1856458858370047
301.34283277996530614
301.44119739645589107
301.42135199557941405
301.28055803031372761
301.08968562961547377
300.95098737824531554
300.92532508043558437
300.99364607133526306
301.08057175918270332
301.11476804241408445
301.07066995620459693
300.96944463332152964
300.86298346123891179
300.80464751615863861
300.81873693724588748
300.89938172054212373
301.00925205346362645
301.10804716996830166
301.16113727122922228
301.15698234325179783
301.1012247092293137
301.02330745899439535
300.95849700415664074
300.93490941757204382
300.95759556060244222
301.00114311657125654
301.02695547451958191
301.01402739815307541
300.97444688616303665
300.94629035585444399
300.95909664794874061
301.01117748149027875
301.06981462417974171
301.10106904858929511
301.0959369429618846
301.06960170134129839
301.04584383589298113
301.03826489075578365
301.0460136873480792
301.05987308429587301
301.06654939493472511
301.051718815477102
301.00531214400717772
300.93024876374067844
300.84682652258544522
300.78454150614226137
300.76619597929015981
300.79830831862381046
300.87304211339863969
300.97463378550276047
301.08701847290802789
301.19247067150320163
301.27163232476993926
301.30877280582461708
301.30055551310238116
301.25087291744785034
301.16536916288822567
301.04937280826106871
300.91490807387827999
300.78781961727185035
300.7018903390584228
300.6839530585260718
300.73912811472223439
300.84774285380916581
300.97467357760888262
301.08553095339391348
301.15791341497066469
301.18199851703724335
301.1571774779516204
301.08934113537276289
300.99342071052166148
300.89474751845597211
300.82342175116565386
300.80194393863979485
300.8355740752112979
300.9120856414095897
301.01151817070012839
301.11566835063604231
301.21157602520730734
301.28853691300321316
301.33466067806187993
301.33654500711514856
301.28424843117295495
301.17658487948642687
301.02183311561600476
300.83330261518665338
300.6231765587478435
300.4002351353690301
300.17251787788444517
299.95020964275443021
299.74447041885986209
299.56387566287412483
299.41091500870828668
299.28263397205915908
299.17473604447434354
299.08508767807097684
299.0137786218842848
298.96111183809676959
298.9254015940018121
298.90257415666002316
298.88719379463384485
298.87415140395717117
298.85903169600055662
298.8392962070147405
298.81456098853976755
298.78690318918575031
298.76001385130507515
298.73755644247910368
298.72219077700862044
298.71448563712755231
298.71346028587942101
298.71746612326870718
298.72537446154990448
298.73742203951780994
298.75606702588873986
298.78520015172870217
298.82665804322971326
298.87770431004724969
298.93019890022418394
298.97312381116694269
298.99769268174941317
299.0017104240577055
298.99067382132733428
298.9741143243040824
298.95964965562376392
298.94933689484065553
298.94104741729677244
299.08031838936346958
299.0889199645195049
299.08748912727531888
299.07817787641357654
299.06655229030889132
299.05749250978112741
299.05271017671230993
299.05063903883308285
299.04811428724775624
299.04253472929809732
299.03302192001660842
299.02039802243950817
299.00677691107244982
298.99475045878040191
298.98661210004809163
298.98376045681408186
298.98631493664260006
298.99336545536891663
299.00370185479198426
299.01691155434815528
299.03394490539784556
299.05617372187032288
299.08348168647029297
299.11275492362699424
299.13812002731617667
299.15341920422116573
299.15528127133575254
299.14490088356342312
299.12746198693781707
299.1097075763886437
299.09700533690528346
299.09171722852988751
299.09345617775215942
299.10039436309972416
299.11076943893993985
299.12333665946420069
299.13671777573239297
299.14899886670690421
299.15787348647631916
299.16161301072577317
299.16041256080421817
299.15709534471892539
299.15617977032502495
299.16196102271902646
299.1769054331725215
299.20069134649554599
299.23032212920128359
299.26108495018758049
299.28793518217236169
299.30711709018299871
299.31702974219740554
299.31814599982084246
299.31206376726339613
299.30054540978528621
299.28452809085797526
299.2647406649534787
299.24194906417841366
299.21781021661092836
299.19557818903507496
299.17905398702623643
299.17100936137700273
299.17205938726266368
299.18014653625118626
299.19119139600655899
299.20059318204545207
299.20497089181236561
299.2031486119415149
299.19615776289640507
299.18622348079981066
299.17568405870514425
299.1666500969944309
299.16038286473173002
299.15756358330884268
299.15875040390938011
299.1639886094483245
299.1724454605171104
299.18214412779394706
299.19018232260901868
299.1937109195305311
299.19138887835777041
299.18421505320122833
299.17540866145981227
299.16917886171512464
299.16887410417530191
299.1754742029364138
299.18705478382059937
299.19958769882282468
299.20867016009242434
299.21126924262949842
299.20674555552710672
299.1967813205181983
299.18444492427147452
299.17303065997901967
299.16507248700412447
299.16182738058040513
299.16322349736714159
299.16814213602634709
299.1749071932156312
299.18178151843187607
299.18736667957426789
299.19087586292823744
299.19211265680837641
299.19124155592038505
299.18849390960258461
299.18388071410055318
299.17711084267079968
299.16780969337480656
299.15596920891266564
299.14235024535332741
299.12858780635002631
299.11686276539734308
299.10934158337954614
299.10747488697143126
299.11150018107497317
299.12042607121219362
299.13240606041313185
299.14532961537150868
299.15743360754470359
299.16762016079934483
299.17540151539503768
299.18061688259223274
299.18313386819164634
299.18275028443940755
299.17924788703652439
299.17266814850853507
299.16350212102236128
299.15260776815512145
299.14095576714896652
299.12934591255304895
299.11817728408453831
299.10740724080608288
299.0967210992814671
299.08576026100246281
299.07436040040255421
299.06264588949505878
299.05102325614546999
299.03995261124424587
299.02972013708779286
299.0203408268723706
299.01165882200200485
299.00365945427461156
298.996606223150593
298.99104936275278988
298.98767308450624114
298.9870938561539333
298.98959588044755264
298.9949855091366544
299.00261948008369473
299.01159451804932132
299.02096602058105645
299.02991723981915584
299.03781854380088134
299.04424050928497536
299.04887663031081502
299.05146641336165203
299.05182003280526715
299.04994211578724617
299.04616685884991512
299.04126249892925671
299.03637441071873582
299.03267442659529252
299.03096367784155518
299.03136652102790549
299.03328458276871515
299.03556845780713047
299.03694128080127257
299.03638396298538282
299.03340889234658562
299.02817263628213595
299.02130472901592384
299.01363818680687245
299.00596393554388897
298.99886246362115116
298.99252578595530849
298.98678644667160142
298.98125212790813521
298.97550718889954169
298.96920657385612685
298.96213741867461522
298.95424317300194161
298.9455843176949088
298.93621222788908653
298.92615994604460639
298.91545053874949645
298.9041656854132043
298.89253790529357957
298.8810685987607485
298.87060443150801348
298.86220890415955864
298.85703296752581082
298.85615033726804768
298.86021963996449813
298.86923524862152135
298.88248588587100585
298.89842561399700571
298.91509899220386615
298.93042538940301256
298.94261442598360645
298.95074351153454018
298.9544661933711609
298.95407199951455368
298.95028276058849315
298.94423439849691704
298.93734504021915654
298.93114276027932874
298.92702170566928999
298.92624343547305443
298.92956314527765471
298.93752077942372125
298.94952440511690384
298.96436023960274042
298.98016101820434187
298.99476911451768046
299.00615794027618222
299.01293100273232994
299.01476922076778919
299.01209847876737058
299.0062158951579363
298.99909033436034633
298.99263262381498407
298.98849015123289519
298.98783440080853779
298.99104314691368245
298.99781371278623965
299.00739091027679706
299.0186150478382956
299.03013270207333107
299.04074011987194126
299.04961831600576261
299.0562926395557497
299.06051485482919361
299.06227611938339805
299.0617314780979541
299.05911872512865557
299.0546726709517884
299.0484879270650822
299.04064107546116702
299.03148571257338517
299.02179516951855476
299.01267894216073273
299.00536621595244924
299.00106639165079514
299.00078506281084856
299.00501752786050247
299.01355406227634148
299.02550747329200931
299.03950747452273617
299.05399755083470836
299.06753469587317795
299.07910831967859622
299.08834488296872678
299.09539578095370871
299.10079673958898638
299.10529470318954282
300.2558257082218347
300.12917730050907039
300.16660946598159398
300.42075690498592166
300.4781300255667702
300.3358037486055423
300.20967902314083631
300.24139444429283685
300.3170470111961663
300.28722764356962216
300.22058349593083904
300.21879229518060583
300.24254752327118467
300.22500124636599139
300.16922504737567579
300.15419914825423575
300.24522578901496672
300.44642669897473297
300.65490988970014996
300.71865725338454922
300.65231146674886986
300.57784785544191664
300.54369388204565894
300.54612453361778535
300.61440741089080575
300.76043052027830527
300.88758418371372727
300.90866075351118525
300.84507771952951316
300.76737514277556329
300.69849416305038403
300.63102814101216609
300.60350695443599989
300.65971670314689845
300.77433482661314201
300.90305929672274488
301.03075335214487041
301.12630650204971516
301.13287243215296485
301.06186169238668526
301.00238540905314721
301.02501703329812699
301.12235312224680683
301.25331110552434666
301.37508673519243985
301.43937463656908449
301.4050941270028261
301.27850263480729609
301.12063684166844268
300.99399549930342346
300.92359205981233572
300.91373918597486181
300.95982380371816589
301.04000402857531071
301.10847118291530933
301.12377052089686913
301.07565290137858938
300.99807355231558859
300.9500711584646524
300.98302767921728673
301.09738496199156543
301.24708302096735224
301.35174945674918945
301.34714252411635016
301.2278265548036984
301.05526689157414921
300.92358729002546625
300.89378843004465125
300.95879997380370696
301.05982420723626092
301.12447856567234794
301.10245501537849577
300.99772686555598966
300.8673678198745165
300.78503833447570059
300.78906032497337719
300.87042682739979682
300.98615468076673096
301.08413841886221007
301.13397604980355027
301.12845482998227453
301.08534050594545306
301.02873109964025389
300.98301155243973426
300.96516334358943823
300.97752426097270018
301.00634671251702912
301.02463213552687193
301.01117815831980806
300.97176793603745182
300.93804831246836784
300.93915491871160839
300.97773321230283727
301.02639290593464239
301.05293392859863388
301.04475061636873079
301.01508612739240789
300.98658628332782428
300.97492672907424094
300.98465619185537889
301.00972600760172782
301.03499411392681395
301.04116106738916869
301.01289501364738044
300.94978433247791827
300.87172307766206814
300.81026694430215684
300.78992489884899442
300.81867305443836358
300.88457389169775524
300.96985606577050021
301.05922776625220649
301.1409768676998624
301.20455164686876515
301.23936210536430735
301.24061993618380484
301.2071768134795775
301.13954857097303375
301.03985924241493422
300.91782471866093829
300.79645033562621848
300.7083242602573705
300.68157900712600394
300.72486978712856853
300.82254503496204734
300.94276607159611103
301.05140426180997792
301.12533474419200274
301.15307135473341305
301.13179930256256966
301.06522481077985276
300.96774710457901847
300.8656305161604223
300.79032717638506256
300.76596439318859666
300.79905787342056556
300.87838743674660691
300.98409539784717026
301.09824929811964012
301.20752155434996666
301.29946077247149105
301.35796426773578105
301.36443037571837067
301.30588251257415777
301.18342846844251426
301.010935455000606
300.80713978025647748
300.58756377987435826
300.3619864633525367
300.13827031169125803
299.92570101503315527
299.73334815418940025
299.56602568598759717
299.42227049586767862
299.29705681608311352
299.18677974823350496
299.09194281586883335
299.01562919118481432
298.96008477057773689
298.9242965204570055
298.9037237575881818
298.89099962937683586
298.87878509148225703
298.8616319660247882
298.83776471998288571
298.80948932005736651
298.78159622447515176
298.75915144672717361
298.74523182866329307
298.74030045446482973
298.74204387584967435
298.74720269585486676
298.75321404892889632
298.75934147538634988
298.76716501093454781
298.78042969134554596
298.80342589835822764
298.83799499645840569
298.88104539517098601
298.92451140947321164
298.958745417408295
298.97687753797197274
298.97840253720823966
298.96923400461776055
298.95773271110175529
298.94977061765376902
298.94608547690836531
298.94396639671117555
298.94157279892488077
299.0912683930950493
299.10096608664667883
299.10636668878413502
299.10454705553030408
299.09695789008713973
299.08775425991774455
299.08058987048212884
299.07663169862871655
299.07452055685791947
299.07169584706338128
299.06612987004081106
299.05731081665811644
299.04596810681738361
299.03347805238979618
299.02157872229599889
299.01203920405919234
299.00652969415131111
299.00624756399463422
299.01159625582181434
299.02220700067749704
299.03724576951424297
299.05616287947395904
299.07867871290181938
299.1039591935880253
299.12975492703333202
299.15201914303571584
299.16612815248367951
299.16908152935826593
299.161013935255653
299.14535676752257132
299.12743266509926343
299.11219406876642779
299.10267071805964179
299.09979478281428555
299.10310975543899303
299.11161473719232617
299.12388359881254019
299.13783040675838265
299.15070466279235006
299.15970374005019039
299.16320294918926948
299.1618052054348027
299.158505117332993
299.15760405850608095
299.16304103662827174
299.17693833525237324
299.19899441996466294
299.22664735330204167
299.25581275334076281
299.28205985359903707
299.30175285184645873
299.31285384718984233
299.31488478435500156
299.30853714446828917
299.29490009374046622
299.2750413521888504
299.25025084291019084
299.2223211690492235
299.19427026145609716
299.17019027105141049
299.15398784323571135
299.14802416904882421
299.15206649904519054
299.16310196488751671
299.17629644215452345
299.18688216646546607
299.19185339097128917
299.19074878181913846
299.18523311440594625
299.17783220006538158
299.17107313696254778
299.16639694841586561
299.16446705012629081
299.16551535319086952
299.16961888017158344
299.17662081054641021
299.18560864883039585
299.19450710604888855
299.20055137466732731
299.2013186664909199
299.19607412049663253
299.18633490809583009
299.17548090755877865
299.16764423090074843
299.16595638848667704
299.17114276627387426
299.18123577410852931
299.19246649400275828
299.20090787030511592
299.20404002230674223
299.20157386783631637
299.19522167242149635
299.18771181954696203
299.18159466821981596
299.17853812074338293
299.1791362745111087
299.18304197149501533
299.18923930869141259
299.19638695921679528
299.2031448506680249
299.20838210081655006
299.21132780038925603
299.21173598977406982
299.20981749374192304
299.20591741210944292
299.20025369532163495
299.19282114933275807
299.18352353889684991
299.17256289303452377
299.16082163904633262
299.14986043203055033
299.14155138453128302
299.13749953866152964
299.138419899808639
299.1438151900694038
299.15222354545625194
299.16181528636587927
299.17107214324073539
299.17915986406705997
299.18588008640995213
299.19129523947202642
299.19524548366041472
299.19709836854383411
299.19592180764811928
299.1909243376625227
299.18196182825602136
299.16978461651711996
299.15584000013672039
299.14181040267209255
299.12906193758999507
299.11821950770138301
299.1090757531249551
299.10085775876524394
299.09267739982192325
299.08392624922879577
299.0744478407692668
299.06450455439852476
299.05459804843872007
299.04520915680586768
299.03665372973188141
299.02909128452103005
299.02265796578944901
299.01757180632870359
299.01415712095246136
299.01277364281588689
299.01369987592681809
299.01703632988932213
299.02264636787424479
299.03016230299800782
299.03901862525196975
299.04856502348957292
299.05810798531990713
299.06691762801676759
299.07426157293480173
299.07946975626356334
299.08208361934174491
299.08197511306417482
299.07945885539879782
299.07535578017359512
299.07082273557762164
299.067051933801622
299.06495087151625967
299.06482914367188641
299.06627273406093082
299.06823699861450905
299.06940499837963898
299.06858649889579738
299.06508584770813286
299.05881635421133069
299.05029804605288746
299.04045807120758127
299.03036184871973546
299.0209347264856774
299.01278071957835891
299.00610253573347563
299.00071352463834273
298.99615353565820897
298.99180190325768081
298.98706728754319784
298.98143440626347456
298.97454187419987193
298.96624556401496875
298.95659781171190161
298.94576275208930838
298.93395104409205487
298.92143353498642
298.90861121782660348
298.89601486945019815
298.88442110276230324
298.87484049565989608
298.86843422505336321
298.86632774689945791
298.86931862594718723
298.87759289165632026
298.89059907643547831
298.90708069959021032
298.9250275945823887
298.94216295545498951
298.9565319860995487
298.96665693122025687
298.97186885037172033
298.9722712425843838
298.96864224678859046
298.9622301176016208
298.95448449815910408
298.94695277216715112
298.94102251396844849
298.93773308852951232
298.93766361888680194
298.94107052630442922
298.94774805217923586
298.95700812743848473
298.96793810807292857
298.97908867591280568
298.98898565957284745
298.99624459020265022
299.00009115335501519
299.00045404879142552
298.99768660817693444
298.99285697339752232
298.98752994487415435
298.98330746689060788
298.98165318017856862
298.98355353020866687
298.98923056661647024
298.99830492273133586
299.00996024479098878
299.02293542140989757
299.0356968705965528
299.04681654453406736
299.0552569063341366
299.06037261030735408
299.06198121021327552
299.06034814311351511
299.0559213181363134
299.04922936696272018
299.04090978006229307
299.03162256938958308
299.02194979356738713
299.01244191467475275
299.00382503699484005
298.99705760266920151
298.99312179149262647
298.99274748913080657
298.99623987122834023
299.00340509031281044
299.01354800991344973
299.02564615061720588
299.03864452476307179
299.0516490897712174
299.0639267567816546
299.07498229763876907
299.08467471621656841
299.09310009017161747
299.10031506025751469
300.18342930131609592
300.31897780271560805
300.47063299279284365
300.50475150901974075
300.35123158894515427
300.21005992244062099
300.17757941734083715
300.18881588034781771
300.17992646030228343
300.18946991326129137
300.25188623253370679
300.28527809491725975
300.23468202363596902
300.14067364269692462
300.07285793961062836
300.0731316848450092
300.1620261166951309
300.35550119355525567
300.58205721032516067
300.69531802266590148
300.66081738911168486
300.58682379479773772
300.53317370708680301
300.50312127647941907
300.54307423531497534
300.68344115493090385
300.83925520822646149
300.89887177513185179
300.8605438024252976
300.78812430048947135
300.70706411804371783
300.63111150100098712
300.61880781779865401
300.70200325810810682
300.82770892946280128
300.9390166242194482
301.037642487798621
301.10923702614843478
301.10312965097290316
301.02971101519653985
300.98077812798277364
301.02342506792547283
301.13848299840833533
301.27452373896062454
301.38823372488468522
301.43180805252944765
301.37149234252785845
301.22767761585021162
301.07087859548937558
300.96545677423426923
300.93023543593511704
300.95319453454288805
301.01584490204959366
301.09573481323860733
301.15282848721193432
301.14542932421295518
301.06759040685267337
300.96230156815971668
300.89550646095318598
300.91792446942099559
301.02785941347650578
301.17636776225066342
301.28012545152489565
301.27950043368014121
301.17457769091544151
301.02562084263439601
300.91403822591115613
300.89294312691885125
300.96115117200093891
301.06785646871566087
301.13799944888825166
301.11303214583045929
300.99755677429305933
300.8585967179110412
300.77779146063107873
300.79316974557957565
300.88107210296772109
300.99049410928125781
301.07150507463285294
301.10267339331608127
301.09258331674226383
301.06094310750933118
301.0260724232028906
300.99830265226023585
300.98270608712647345
300.98153003370532588
300.98993801566274442
300.99589362417015082
300.9847141965855144
300.95534194127833416
300.92552005425841344
300.91969314361011811
300.94292984834169147
300.97704443694232168
300.9963894159074016
300.98964812977362726
300.96559072908388544
300.94194195540796954
300.93532591766398809
300.95073265987866762
300.98256475047890035
301.01409683665326611
301.02408412054143128
301.0005604378075077
300.94826080908524091
300.88640090998916321
300.84027157552571907
300.8293441029466635
300.8593830367207147
300.91838109747800445
300.98925448614215838
301.0590806124596952
301.12026939564901795
301.16824248153352528
301.19654847335715431
301.19814353130226436
301.16918038488461207
301.10847186783746565
301.018569826196142
300.9089313428614787
300.79955197282697554
300.7180676304412259
300.68970734478983786
300.72361188834867107
300.8071345281935578
300.91275866950303453
301.010768118880776
301.08000199939596087
301.10892023303847509
301.09199825737539413
301.02988076638507664
300.93561996729147268
300.8362286274299322
300.7637600228113115
300.74235400248443284
300.77800949221051496
300.859326790033208
300.96620317446206627
301.07986969979901914
301.18668671936785586
301.27373591526509244
301.32402286511023703
301.32020306461873815
301.25259380799263909
301.12576022028935085
300.95462085949878883
300.75504328144268129
300.53818561179633662
300.31183927806085876
300.08475745524282274
299.86858190263751567
299.67394038552009761
299.50569375376034031
299.36245543120384127
299.23983597751720254
299.13518762825862041
299.04924761565069957
298.98408525973536598
298.94013607137696908
298.9152200151252714
298.90434434887492898
298.90003371678074018
298.89421048494983779
298.88130765392349986
298.8596300713581968
298.83244474899339593
298.80529404098149371
298.78363284509362074
298.77042883974218057
298.76552849492622954
298.76608088811030939
298.76863936554633483
298.77157981071309223
298.77593791118391664
298.78435027302919025
298.80049568358111856
298.82676496695370361
298.86207259113876944
298.90113669724405554
298.93635293834734057
298.96059065942381494
298.97007584165800154
298.96650855486745968
298.95585904001762856
298.94491797488075235
298.93736309540184948
298.93358705951681031
298.93244794294452049
298.93357297909540193
299.1145947047736513
299.11864015657897653
299.12135777201308429
299.12012268798457626
299.11507874668455997
299.1083986898484568
299.10257405066579395
299.09876976914370061
299.09657560461221237
299.0946973804371396
299.09176850708655593
299.08696286895906269
299.0800099037260793
299.07084354394885395
299.05992876965638061
299.04858044047546173
299.03910823603303015
299.03438079851287057
299.03675507803944811
299.0471142284577013
299.06428354658237367
299.08571534380592993
299.10872371948892123
299.13115721602758867
299.15141598182407279
299.16774308701315022
299.17785885849855276
299.17980929012128399
299.17314649830518647
299.15956231319978542
299.14259750663904924
299.12641008745913496
299.11442523090084933
299.10871886434591715
299.10998476585456274
299.11764874893316346
299.13005850866596802
299.14461971202393897
299.1581087796250813
299.16763889169754975
299.17183635989420054
299.17136423167170278
299.16872155654289145
299.16746942471468174
299.17099338626275085
299.18129299522365727
299.19844707208926593
299.22071082643230966
299.24498148565334077
299.26759787818815539
299.28521090172574759
299.29551264284117451
299.29740138859165199
299.29082218523603842
299.27633876430604687
299.2550383296252221
299.2285685174387595
299.19944074594064887
299.1713159435011562
299.14843585437785123
299.13436408258888832
299.1307612292400222
299.13661825238295933
299.14828887442200767
299.16093880518047854
299.17035274562238101
299.17433288313355888
299.17321029773512464
299.16901113310171922
299.16446419847449079
299.16159817995725234
299.16121161976047915
299.16328405052632888
299.16766787998477639
299.17417983048875385
299.18234521647366364
299.19100896142003876
299.19813760583389239
299.20147535388616689
299.19937579243020309
299.19172400563104475
299.18047171543537388
299.16886350615942547
299.16038459734079424
299.15752550930693587
299.16069961658149623
299.1681485218152261
299.1769438316389369
299.18427152228213117
299.18842335988000514
299.18938499662175445
299.18844850365593402
299.18747470819874934
299.1880434871747525
299.19076806363256082
299.19545418877794418
299.20151345547549226
299.20814582097017365
299.21455833011924597
299.21997718030127089
299.22359251735252883
299.22484395440886829
299.22360204692625985
299.22013061847792414
299.21486565599229834
299.20821239245583456
299.2004683038904318
299.1919678665290121
299.18325810849381696
299.17533322082107361
299.1695283492694557
299.16706218532328876
299.16852054979494824
299.17351651096686282
299.18067715795365302
299.18813020300979133
299.19427808464189411
299.19839469513715358
299.20074719361940652
299.20218097761562603
299.20339746136335179
299.20435026840027604
299.20404972505752994
299.20102023300682959
299.19403605533085511
299.18280589687913107
299.16825998680644716
299.15229948349281131
299.13717926887454723
299.12467530251535663
299.11555386718845284
299.1094096077893596
299.10497729860253457
299.10072618901824626
299.09543240975148137
299.08855610173594641
299.08027836517510423
299.07130922885045266
299.06263198801838143
299.05512169651001386
299.04932999067324317
299.04543948456182534
299.04345967294892716
299.0432645366584552
299.04464599744846964
299.04737433650171852
299.05131761981760974
299.05643745213825468
299.06271040003628059
299.07007674165612343
299.07832749223234714
299.08706413511328037
299.09565890937835775
299.10332237927741517
299.10925822618503389
299.11287902021251739
299.11404721555902597
299.11311819318655125
299.11085571216557355
299.10823674858323784
299.10615371434323606
299.10516420355349965
299.1053022171653879
299.10601286991112602
299.1063294248987745
299.10515709186819322
299.10156109027656157
299.09505496846099959
299.08570687900584062
299.0741024944363744
299.06123132002642251
299.04826204916145116
299.03626900334973016
299.02608349294860091
299.01814211047690151
299.01242432850551722
299.00844007691483739
299.00536545124930399
299.00222720832664436
298.99813968169371492
298.99242829649529085
298.98474263523127092
298.97512823695842599
298.96393100496163697
298.95165115462975791
298.93881088822064385
298.92591468622748607
298.91349430882451088
298.9021553972950187
298.89268694381956948
298.88607618478135919
298.88338704057434825
298.88544890824209688
298.89259257663525204
298.90446057539077174
298.91999144712292491
298.93752416914827563
298.9550255087953019
298.97025515532118334
298.98164365848634816
298.98836918928549267
298.99030660521202662
298.98816689746217889
298.98297465650949789
298.97606865694530143
298.96858214393358821
298.96162617613651946
298.95578479195745558
298.95163721742818552
298.94938826679856447
298.94936708291237437
298.95176472161182346
298.95662432258785657
298.96357194968885551
298.97169477412353444
298.97971429850645109
298.98623070646124233
298.99026906490178135
298.9913779643142675
298.98974449481158899
298.98629830479376324
298.98250774775880245
298.98009751671099821
298.98058368107183469
298.98479638389039792
298.99274252211961311
299.00371362569387657
299.01645922385989707
299.02945328811148329
299.04110078833031139
299.04999835713908851
299.05520227194915606
299.05640070331099878
299.05394527307981889
299.04853959285895826
299.0409626334414952
299.03203883222130344
299.02263402371551138
299.01352358646397533
299.00527889980065765
298.99833440183448374
298.99316730732510905
298.99033181747853405
298.99026518352400217
298.99306618905438881
298.99850982564612423
299.0061907114543942
299.01557474553192151
299.02608569362973867
299.03726413200911338
299.04882899837463128
299.06051740468092248
299.07191285353383137
299.08247717899701001
299.09160925074257875
299.09868814685643201
300.4759379125288774
300.10991964971196921
300.13930630941018762
300.12630420343202786
300.0841773032209403
300.09188545904635248
300.17002863630580123
300.24043003436287336
300.20953014303165673