/*--------------------------------*- C++ -*----------------------------------*\
  =========                 |
  \\      /  F ield         | OpenFOAM: The Open Source CFD Toolbox
   \\    /   O peration     | Website:  https://openfoam.org
    \\  /    A nd           | Version:  12
     \\/     M anipulation  |
\*---------------------------------------------------------------------------*/
FoamFile
{
    format      ascii;
    class       volScalarField;
    location    "0.0051";
    object      nut;
}
// * * * * * * * * * * * * * * * * * * * * * * * * * * * * * * * * * * * * * //

dimensions      [0 2 -1 0 0 0 0];

internalField   nonuniform List<scalar> 
106891
(
6.3542780825424689009e-06
6.3480614907096460093e-06
6.3404773332629143107e-06
6.3342865205207201547e-06
6.3267308426915530535e-06
6.3205010086454807574e-06
6.3128662565633452409e-06
6.3066688434300562668e-06
6.2989227407409046546e-06
6.2928590553764753834e-06
6.2842461059833524907e-06
9.661516377996861389e-06
9.6412982341453073055e-06
9.6214581856017164871e-06
9.6031749854070128981e-06
9.5858785779220899052e-06
9.5706503343588270337e-06
9.5564129808333819169e-06
9.5436053447895942631e-06
9.5309464189263475432e-06
9.5192849942056605015e-06
9.5075314701378529653e-06
9.4965526257360795113e-06
9.4853409604064589059e-06
9.4748376822868235746e-06
9.464026886433598551e-06
9.4540009043555932479e-06
9.4435849263041062658e-06
9.4337274828618648592e-06
9.4232788626902800044e-06
9.4131895681469917621e-06
9.4025341309917088295e-06
9.3923439323804384595e-06
9.3819542788164614892e-06
9.3721606068617123025e-06
9.3618593052154057415e-06
9.3520019763852635787e-06
9.3416933752855196274e-06
9.3316632624029139694e-06
9.3208080463808636474e-06
9.3101045166652985252e-06
9.2985921374919846497e-06
9.2873341720770586922e-06
9.2754683975691866482e-06
9.2640540721013087431e-06
9.2523289354445177569e-06
9.2413920784639305364e-06
9.2300303403136555407e-06
9.2193580314836457486e-06
6.7515197301903095249e-06
6.7432058409189402076e-06
6.7364150225103382644e-06
6.7281352661909913515e-06
6.7214232898805506994e-06
6.7131940809958846601e-06
6.7065005290652975447e-06
6.698257449561019578e-06
6.6915773924263359933e-06
6.6833260397822274519e-06
6.6766602877102324684e-06
6.6684578277048662924e-06
6.6618083191192526088e-06
6.6536070074061046819e-06
6.6469079780806237501e-06
6.6386289778724573126e-06
6.6320143378863861066e-06
6.6236093892915483803e-06
6.6170895100590830805e-06
6.6076965987734859328e-06
1.014872499502863147e-05
1.0128108964703337591e-05
1.0108405454771116931e-05
1.0090810656417714005e-05
1.0074372310774024831e-05
1.0059914886168452855e-05
1.0045971544302037702e-05
1.0033224772394892265e-05
1.0020253519481543382e-05
1.0008080729555798269e-05
9.9957210644887151769e-06
9.9841938601924317141e-06
9.9724286010982451315e-06
9.9615761859708767408e-06
9.9504403698320487864e-06
9.9399945465876977479e-06
9.9289974096970780011e-06
9.9183379190065132478e-06
9.9069682172358914578e-06
9.8959297359824950727e-06
9.8846659334139411635e-06
9.8741389132748605585e-06
9.8632393844240606902e-06
9.8529046573801284709e-06
9.8422096164568570887e-06
9.8320798075899139534e-06
9.8212688322738854658e-06
9.8107144716681290211e-06
9.7992149297346566332e-06
9.7878773319592935663e-06
9.7757363746648737228e-06
9.7638611148487786752e-06
9.7514415264503991857e-06
9.7397995242092314091e-06
9.7277749308100766525e-06
9.716524966069163831e-06
7.1027126297093203783e-06
7.0938195781939995899e-06
7.0866046240057995159e-06
7.0777292503477654985e-06
7.0705767015099220784e-06
7.0617402656083953159e-06
7.0545805073136265385e-06
7.0456847865666301221e-06
7.0385095819362250485e-06
7.0296185837815307966e-06
7.0224629352352413889e-06
7.0135856522377436285e-06
7.0064406980741242653e-06
6.9975734547304678539e-06
6.9903974039634788251e-06
6.9814558547238922935e-06
6.9743755550666479764e-06
6.9652874072437021723e-06
6.9583091230391982474e-06
6.9481610699085647503e-06
1.0707402511293316149e-05
1.0683027519332537108e-05
1.0659869569973524865e-05
1.0639142320147072568e-05
1.0619826305081876295e-05
1.0602738638125072795e-05
1.0586496283764460316e-05
1.0571711903811438526e-05
1.0556902149660976815e-05
1.0542999931796702637e-05
1.0529080400737879798e-05
1.0516193271698765809e-05
1.0503208427395772597e-05
1.0491330688802096339e-05
1.04792050914273166e-05
1.0467833868905164396e-05
1.0455783632500261721e-05
1.0444096528800242624e-05
1.0431718317864047997e-05
1.0419799842902845451e-05
1.0407667479746132458e-05
1.0396296452919111361e-05
1.0384547633426984809e-05
1.0373458084387520822e-05
1.0362011008221588238e-05
1.0351184044370802465e-05
1.0339754293958521741e-05
1.0328683133432388729e-05
1.0316721727493731675e-05
1.0304878552605306182e-05
1.0292132348123035057e-05
1.0279580843331007642e-05
1.0266474547937529078e-05
1.0254254921702040889e-05
1.0241745900841028944e-05
1.0230070352395977446e-05
7.4629300580108866262e-06
7.4552780028907602195e-06
7.4457584049199847427e-06
7.4381188688454128171e-06
7.428580950882909924e-06
7.420911866872279633e-06
7.4113377190066159769e-06
7.4036555200690183141e-06
7.3940387193505905495e-06
7.3863329827821446228e-06
7.376761213605686209e-06
7.3690693288638846748e-06
7.3594825431870175702e-06
7.3517889421225559034e-06
7.342175292329471603e-06
7.3346268950462639732e-06
7.3248596569534814131e-06
7.3174295491550196921e-06
7.3065560786877202127e-06
1.1249894848377750025e-05
1.1225600211413566971e-05
1.1202770012708314975e-05
1.1182430285328891385e-05
1.116328039519760818e-05
1.1146189278505092067e-05
1.1129522204911045335e-05
1.1114036153856542567e-05
1.1098532687917475815e-05
1.1084120432578781741e-05
1.1069750280454936672e-05
1.1056730638226949689e-05
1.1043639084998765695e-05
1.1031488142733880927e-05
1.1018773319870604765e-05
1.1006542313145402585e-05
1.0993665507706466779e-05
1.0981240107260107624e-05
1.0968488024011297582e-05
1.0956415334582725391e-05
1.0943956584171263084e-05
1.0932196701714642456e-05
1.0919962441594502857e-05
1.0908350071826398663e-05
1.0896179558477075774e-05
1.0884656672269645849e-05
1.0872442440774564279e-05
1.0860473210553252748e-05
1.0847532686827183676e-05
1.0834684310430359489e-05
1.0820984915300140033e-05
1.0807929953418657067e-05
1.0794471602173740703e-05
1.0782068106694853946e-05
7.861457580758910918e-06
7.851345474299043398e-06
7.843286466698760434e-06
7.8330833412633840907e-06
7.824940406391166239e-06
7.8146473004603282669e-06
7.8064204994296517999e-06
7.7960680615571882938e-06
7.7877910800457050936e-06
7.7774401847300089253e-06
7.7691562683997295144e-06
7.7588077082811291249e-06
7.7505148903447586815e-06
7.7402046041395734506e-06
7.7319716082136091822e-06
7.7216666573694153942e-06
7.7136264968822827666e-06
7.7031828135734705428e-06
7.6953016351226020253e-06
7.6837374892489342527e-06
1.1851922223048690647e-05
1.1826193964541476902e-05
1.1802963424064320079e-05
1.1780909679563651512e-05
1.1761169523238687771e-05
1.1742143850287876239e-05
1.1724668248740453087e-05
1.1707214169154968442e-05
1.1690790884408570064e-05
1.1674346117307627624e-05
1.16594383708447237e-05
1.164471133996385851e-05
1.1631266156600861004e-05
1.1617443172584093856e-05
1.1604170965157178214e-05
1.1590226684173633528e-05
1.1576863435086250497e-05
1.156335754749536219e-05
1.1550666420984530915e-05
1.1537529083937755057e-05
1.152504682169615361e-05
1.1511983686217876744e-05
1.1499535378761007414e-05
1.148637041995566259e-05
1.1473862536684000283e-05
1.1460743099847289577e-05
1.1448122502776412654e-05
1.1434726853256101974e-05
1.1421605592605659055e-05
1.1407529000299283635e-05
1.1393867682611313584e-05
1.1379428687878532657e-05
1.1365933137453531216e-05
8.2599263391648836867e-06
8.2513837403167185244e-06
8.2404753311617982278e-06
8.2317795251027280046e-06
8.2207109707850264322e-06
8.211892464425179914e-06
8.200751842956583015e-06
8.1918793072411721749e-06
8.1807330629903604011e-06
8.1718336847034964935e-06
8.1607050997158695041e-06
8.1518440091698270432e-06
8.1407782175597550727e-06
8.1319959350470793591e-06
8.1209841471774093889e-06
8.1124844263674021112e-06
8.1013785261618217077e-06
8.0930310749968020507e-06
8.0807419432755048607e-06
1.2449516254367424967e-05
1.2425660712359942511e-05
1.2403034344586654752e-05
1.2382748494389750338e-05
1.2363150934147836636e-05
1.2345006225854222981e-05
1.2326845931666832764e-05
1.2309684526054485445e-05
1.2292463355103545324e-05
1.2276866997758836239e-05
1.2261481569869496893e-05
1.2247449277605359803e-05
1.2232887206555123985e-05
1.2218854743733823464e-05
1.2204121776930406374e-05
1.219014085032586896e-05
1.2176093183286736457e-05
1.2162880022200135886e-05
1.2149115038342477431e-05
1.2135888735169772122e-05
1.2121880375300183818e-05
1.2108375220707133895e-05
1.2094066784645181358e-05
1.2080351159346853173e-05
1.2066018677930297196e-05
1.2052251565946060582e-05
1.2037849349300311659e-05
1.2023923849744384192e-05
1.2009248818795394424e-05
1.1995169096212992011e-05
1.1980328847446776444e-05
1.1966314336449442894e-05
8.6896468365254626631e-06
8.6804813681537317259e-06
8.6688038237779361416e-06
8.6595484357612906567e-06
8.6477066586892218449e-06
8.6383155103756088073e-06
8.6263720113900717095e-06
8.6168896756816501428e-06
8.6049055101135882382e-06
8.5954510946399519816e-06
8.5835882208093589437e-06
8.5742361865908450557e-06
8.5624534792678310633e-06
8.5531712287740533686e-06
8.5414272935032670419e-06
8.5324378642689219075e-06
8.5206605469944381029e-06
8.5118283791607618797e-06
8.498987784780191897e-06
1.3103476205904436333e-05
1.3078538502685491403e-05
1.3055045231762552223e-05
1.3033844081629518028e-05
1.3013144591685208622e-05
1.2993707350472200941e-05
1.2974160511214637113e-05
1.2956092038153090671e-05
1.2938136327019660493e-05
1.2921834723828952562e-05
1.2905548747874935324e-05
1.289032447568400453e-05
1.2874513414977553839e-05
1.2859312173128974177e-05
1.2843861960227622359e-05
1.2829275203093998714e-05
1.2814189019693416046e-05
1.2799655808545715616e-05
1.2784153143156169472e-05
1.2769116537696950162e-05
1.2753224251372804736e-05
1.2738058949919458623e-05
1.2722315864918648832e-05
1.2707176868095356869e-05
1.2691415412572139998e-05
1.2676400583918400958e-05
1.2660890413146051389e-05
1.2646302813871300742e-05
1.2631030480244343899e-05
1.2616543157771536044e-05
9.132098616468757612e-06
9.119619668365723083e-06
9.1098006763552870406e-06
9.0972179999883676771e-06
9.0872871317507772029e-06
9.0746099500350987141e-06
9.0646059443968094864e-06
9.0518974507849009223e-06
9.0419807334807719679e-06
9.0294310078323697838e-06
9.0196089050534583831e-06
9.0071142958871522338e-06
8.9973835931315346022e-06
8.9849303022462987165e-06
8.9754580085944951661e-06
8.9630400403587345148e-06
8.9537059865091809797e-06
8.9403593346958867594e-06
1.3777129024292557582e-05
1.3754249041692417118e-05
1.3732260834971487309e-05
1.3712063684733785015e-05
1.369176086137393216e-05
1.3672799317567615142e-05
1.3653384308986260437e-05
1.3635362723023713023e-05
1.3617267696500519149e-05
1.3600590766827442372e-05
1.358374892838823045e-05
1.3568005692351457951e-05
1.3552032726504837073e-05
1.3536748668187607069e-05
1.3520602960410712222e-05
1.3504971784928245204e-05
1.34882068549102491e-05
1.3471860087609493023e-05
1.3454375742329145757e-05
1.3437725141044568901e-05
1.3420710767658659474e-05
1.3404559504363189952e-05
1.3387625398100799846e-05
1.3371372883525566572e-05
1.3354523899983680726e-05
1.3338875007176669859e-05
1.3322838197609936689e-05
1.3307869320002630652e-05
9.6160753532572532126e-06
9.6029798356340524587e-06
9.5926071707016869952e-06
9.5796073644060504126e-06
9.5692999628056076163e-06
9.5562956946586097653e-06
9.5460094658048690085e-06
9.5329553064102776777e-06
9.5227150538483667884e-06
9.5097361765570534664e-06
9.4995059357512304422e-06
9.4865410168423863996e-06
9.4764519534169218076e-06
9.4635407265347749227e-06
9.453713560488253366e-06
9.4409099156150053919e-06
9.4311917062152588083e-06
9.4178101020463982112e-06
1.4457132055405846476e-05
1.4435139866997112425e-05
1.4415002724083670954e-05
1.4395293702197780789e-05
1.4376971012283047111e-05
1.4358154386377123147e-05
1.4340246707728317535e-05
1.4321874516666382348e-05
1.4304784254915141683e-05
1.4287789117125463407e-05
1.4272256066933924342e-05
1.4256637382541820171e-05
1.4241416756593622647e-05
1.4225022368941907415e-05
1.4208734675321186116e-05
1.4191247174543831564e-05
1.4174232456083607826e-05
1.4156466950981417768e-05
1.4139623450844391315e-05
1.4122493902269857923e-05
1.4106080825052651288e-05
1.4088926563846528768e-05
1.4072372443341462091e-05
1.4055158352196393302e-05
1.403886352442532721e-05
1.402206931510560864e-05
1.4006243008365457437e-05
1.0082706638578639317e-05
1.0068780935013728749e-05
1.0056332070566575512e-05
1.0042658466254596403e-05
1.0030221019929941621e-05
1.0016690005655443639e-05
1.0004186242519271573e-05
9.9905780875165235819e-06
9.9779896037762486175e-06
9.9642709650832193602e-06
9.9516294788210088467e-06
9.9380363153494130456e-06
9.9253101792564411794e-06
9.9119325913497654e-06
9.8992591013739870737e-06
9.8859777443616547276e-06
9.8733014651803185989e-06
1.4949119863519170527e-05
1.4925544221558270815e-05
1.4904139997821591769e-05
1.488367365803805238e-05
1.4865187585762403089e-05
1.484709322543225531e-05
1.4830120954181326136e-05
1.4812376473960524713e-05
1.4795302348238954007e-05
1.477782867927692445e-05
1.476183065773758061e-05
1.4746043363545829514e-05
1.4731401650139629096e-05
1.471593610522384963e-05
1.4700508413831727094e-05
1.4683438506253414913e-05
1.4666623730436928184e-05
1.4648827682445458522e-05
1.4631987418896723013e-05
1.4614841113551222553e-05
1.4598523918192532933e-05
1.4581462831886465316e-05
1.4565130158560091243e-05
1.4547976728287074453e-05
1.4531413635453800361e-05
1.4514129511105243513e-05
1.4497582706552642051e-05
1.0359484349326369799e-05
1.0346875548843181291e-05
1.0329737400062183762e-05
1.0317354191343109382e-05
1.0300285074890756093e-05
1.0287934602535094589e-05
1.0270676049185435442e-05
1.0258145184196586702e-05
1.0240753548345025225e-05
1.0228279277757403387e-05
1.0210773115159804328e-05
1.0198417481963922479e-05
1.0180883952904743448e-05
1.0168619080533107402e-05
1.0148573594044234017e-05
1.0143542812400983949e-05
1.1726001655528169739e-05
1.1709474527121412752e-05
1.1694219866423617748e-05
1.1680822598496728136e-05
1.1668009981212426149e-05
1.165627076500576177e-05
1.164453408725832191e-05
1.1633521612243683465e-05
1.162211950735574262e-05
1.1611376402780486719e-05
1.1600304362990435699e-05
1.1590415406001818797e-05
1.1580202884050467472e-05
1.1570505434878030571e-05
1.1559589801468434626e-05
1.1548739510930602518e-05
1.153667019359686324e-05
1.1525190050891276344e-05
1.1513241463047867844e-05
1.1501966182387653615e-05
1.1490252865733192918e-05
1.1478992144022783496e-05
1.1467007817633532733e-05
1.1455685269418226007e-05
1.1443794896182742842e-05
1.1432199225353850176e-05
1.1420026546371365799e-05
1.1408221894420359058e-05
8.0443743111032508771e-06
8.03074547203726249e-06
8.0208801153134679559e-06
8.0072742017449598516e-06
7.9974696083512577399e-06
7.9837876003120253652e-06
7.9739515417762655566e-06
7.9602706215755807904e-06
7.9505446097704652762e-06
7.9368440719224606637e-06
7.9272320314491764187e-06
7.9134857439989332448e-06
7.9038686239871102154e-06
7.8880411082435466949e-06
7.8862840411962459016e-06
1.1071783132998129896e-05
1.1055011797843784099e-05
1.1040118319399424779e-05
1.1025689068222613705e-05
1.1012503494817193022e-05
1.0999299231111080055e-05
1.0987014882800234794e-05
1.0974448218181005553e-05
1.0962634094985389092e-05
1.0950284308331440013e-05
1.0938771495325872027e-05
1.0926965583003056873e-05
1.0915814978552408282e-05
1.0903880485900956072e-05
1.0892185976915996288e-05
1.0879448100741789915e-05
1.0867170126479618172e-05
1.085428215580658898e-05
1.0842054690347950643e-05
1.0829453465869931953e-05
1.0817373828113092775e-05
1.0804641159425975176e-05
1.0792511199885713633e-05
1.0779778326583564247e-05
1.0767444799406073534e-05
1.0754539736988410632e-05
1.0742124089392332596e-05
7.6480879507789249381e-06
7.6392323197620633495e-06
7.6272746678929729646e-06
7.6185160979643548851e-06
7.6065778401741629143e-06
7.5978480982723694859e-06
7.5859148070068369371e-06
7.577245183211948986e-06
7.565260166508307795e-06
7.5566301770822793873e-06
7.5445538573049296957e-06
7.5358762073497711492e-06
7.5222573275081171303e-06
7.5164487331956732991e-06
1.0642497784880980091e-05
1.0628042455376903496e-05
1.0613919628151240041e-05
1.0600918335439525955e-05
1.0587878635583756039e-05
1.0575840630916902822e-05
1.0563665827308005735e-05
1.0552240815891738383e-05
1.0540169259823073649e-05
1.0528671411286365153e-05
1.0516776160539238714e-05
1.0505582071645657347e-05
1.0493866260356740232e-05
1.0482539695600886557e-05
1.0470231489941732417e-05
1.045822880719934336e-05
1.0445508330839141695e-05
1.0433362431107786331e-05
1.0420827469662251696e-05
1.0408775207671695155e-05
1.0396086685545582562e-05
1.0384003806136267759e-05
1.037135509690011913e-05
1.0359117639364797382e-05
1.0346288017687318522e-05
1.0333933289784387466e-05
7.3569196934888743777e-06
7.3454221874127711446e-06
7.3369774174023575297e-06
7.3255394674475202377e-06
7.3172564871563432629e-06
7.3059467282940024891e-06
7.2977726470761933861e-06
7.2864774398775570866e-06
7.2782794176922211901e-06
7.2668395898126950436e-06
7.2585491043739848213e-06
7.2458456583121845485e-06
7.2396609916279656226e-06
1.0228490072546430242e-05
1.021474827495751844e-05
1.0202067003391096248e-05
1.0189407902581249556e-05
1.0177737659669117387e-05
1.0165936047755629986e-05
1.0154848244282710634e-05
1.0143124846173513906e-05
1.0131889313206251694e-05
1.0120158002626601954e-05
1.0109088186589338884e-05
1.0097595961835462223e-05
1.0086568130328597462e-05
1.0074619004273266355e-05
1.0062886248358457483e-05
1.0050413022429127604e-05
1.0038495054330651761e-05
1.0026227912318927662e-05
1.0014470161680407242e-05
1.0002156914350235326e-05
9.9904833871911053302e-06
9.9782971794886150509e-06
9.9664629793082952795e-06
9.9540129521676281199e-06
9.9419817553962698043e-06
7.0666206080006602951e-06
7.0584340752939103616e-06
7.0473641636883211907e-06
7.0394004705878680835e-06
7.02857782750148423e-06
7.0207724889585447487e-06
7.0100129106409466982e-06
7.0021826367065590621e-06
6.9912653030578331958e-06
6.9833082594410899845e-06
6.9710912060356801208e-06
6.965145923478280817e-06
9.832908421918129787e-06
9.8204773078117482948e-06
9.8081073003551752786e-06
9.7966544735063301101e-06
9.7850587125464606254e-06
9.7741775823772986977e-06
9.7627291119741335982e-06
9.7517490452276215605e-06
9.7402308507224947859e-06
9.7293353066190567033e-06
9.7180596070167855254e-06
9.707311277553634646e-06
9.6957550501960887472e-06
9.6844237229565791378e-06
9.672399281161470064e-06
9.66097455754743681e-06
9.6492789247109514715e-06
9.6381182472394010604e-06
9.626372796682491567e-06
9.6152016910769446442e-06
9.603535126220326168e-06
9.5922232936000872039e-06
9.5802591508019070942e-06
9.5685825821979904429e-06
9.4501342930262429267e-06
9.4384154358940427511e-06
9.4274338814364347014e-06
9.4162177538291174283e-06
9.4056530157321108297e-06
9.3945920754457934015e-06
9.3840500116721991045e-06
9.3729807919257648408e-06
9.362452968212500452e-06
9.3515082981902092807e-06
9.3411514964941529311e-06
9.3301901696106178606e-06
9.3195645316107402677e-06
9.3083062164527848373e-06
9.2975860476378924957e-06
9.2865392998369476285e-06
9.2759885783037244865e-06
9.2648453348480376579e-06
9.254201828108907807e-06
9.2429816457535523503e-06
9.2319874693408511882e-06
9.2202831720089988709e-06
9.2088232072759013315e-06
9.0731198352231801145e-06
9.0617039337540132376e-06
9.0510982566706511116e-06
9.0401851806464312921e-06
9.0298423230727447051e-06
9.0190116923647103866e-06
9.0087445583460052208e-06
8.9981087757023576492e-06
8.9881165104439193113e-06
8.9776839387190263673e-06
8.967715815329247643e-06
8.9572309565227553152e-06
8.947224744775489626e-06
8.9367769373813573308e-06
8.9267305311585106917e-06
8.916093121921690425e-06
8.9059143706667190837e-06
8.8950868334479505799e-06
8.8843641077266707732e-06
8.8729178039116087179e-06
8.8617501666683440141e-06
8.6865628119506096874e-06
8.6761724558936627127e-06
8.6662981832756171219e-06
8.6560527514744445781e-06
8.6464753554418663799e-06
8.6365862570665878487e-06
8.62722760202657156e-06
8.6174081985607198805e-06
8.608017074859075529e-06
8.5981354766525349559e-06
8.5885937583651489558e-06
8.5784266748316456269e-06
8.5686230128044945769e-06
8.5581288955113230384e-06
8.5477409093035321163e-06
8.5367375090053612414e-06
8.5260744520977370771e-06
8.3226374620563932263e-06
8.3129918462710295066e-06
8.3039437711518898259e-06
8.2945118440137186868e-06
8.2854815232965281431e-06
8.2759231528973729153e-06
8.2666561751549442799e-06
8.2567364376278631812e-06
8.247085589434781502e-06
8.2367057420658925206e-06
8.2264694101438801149e-06
8.2157758740084310624e-06
8.2055416607945681182e-06
8.0008978361491058651e-06
7.9921235144201262858e-06
7.9830421594007107378e-06
7.9744144211023901356e-06
7.9652614950612501965e-06
7.9562997574383194593e-06
7.946620503161971137e-06
7.9371138255776835219e-06
7.9268867978473875753e-06
7.9168438470721050321e-06
7.9064810575974875368e-06
7.8966961790404703207e-06
4.3977763731396073436e-06
4.3917968870022491528e-06
4.389557335719293815e-06
4.3920933387878516307e-06
4.4102742810489222171e-06
4.4523296426990887736e-06
4.4853037368209139075e-06
4.505757502628021057e-06
4.5148848427604488503e-06
4.5155185100133261831e-06
4.5123049844887636926e-06
4.5056503126126691772e-06
4.4879965320034810667e-06
4.4682809466505892546e-06
4.4568305411577158174e-06
4.4517500853477116573e-06
4.449448637481297939e-06
4.4526792548073647788e-06
4.47421813157712007e-06
4.5208161107744203888e-06
5.9787366024758466278e-06
5.9764448841325198343e-06
5.9772204590753113084e-06
5.9798200647105029368e-06
5.9826753398937094661e-06
5.9856238990749186893e-06
5.9889268480838261276e-06
5.9907518234641763134e-06
5.9895498292141665804e-06
5.9858127773501460677e-06
5.9797251586649078365e-06
5.9645077713117857854e-06
5.9190921103979650592e-06
5.8471378760823697826e-06
5.78800252357094197e-06
5.7461637822457702616e-06
5.7201905502819363071e-06
5.7066453265124668072e-06
5.7010412166532298356e-06
5.6980585764820652968e-06
5.6995579479805800278e-06
5.7077949309581372422e-06
9.6691052222379510195e-06
9.642456137504065101e-06
9.6237998826416175835e-06
9.6097939404063728689e-06
9.5994927791777679847e-06
9.5927665426338134191e-06
9.5873989425925093625e-06
9.5836778660080995413e-06
9.5835049282978539506e-06
9.5818972797975548761e-06
9.576137790896381685e-06
9.5669763093323202278e-06
9.5455802589533583378e-06
9.4839012905228634552e-06
9.3702726727697766213e-06
9.265965174632382912e-06
9.1801773791391107628e-06
9.116790972628490371e-06
9.0752603779053366679e-06
9.0508748339592636514e-06
9.0370600937961383624e-06
9.0289677974571041287e-06
9.0222382280073903227e-06
9.0159696337385127919e-06
9.0093085662354372789e-06
9.0010771791811816254e-06
2.0711162018526015169e-05
2.0696632911433084377e-05
2.0687175228425774067e-05
2.0683672063405054379e-05
2.0680113102408032597e-05
2.0675277480844360249e-05
2.0670679201381803042e-05
2.0663498694427514629e-05
2.0653750598157471135e-05
2.0640400733961455026e-05
2.062017439543493779e-05
2.0580613417727182667e-05
2.0496916295764034446e-05
2.0389140518007451319e-05
2.0279763414724865229e-05
2.0177659062186237873e-05
2.0089221043850233111e-05
2.0022799274645772493e-05
1.9977654234255849653e-05
1.994888885291482388e-05
1.9931000339919989494e-05
1.9917677029301289942e-05
1.990515272745761014e-05
1.9890954180346566101e-05
1.9872112024958657771e-05
1.9854206500783347789e-05
1.9833698350082573528e-05
1.9814083435397033037e-05
4.9793784641753503263e-05
4.975186349147299789e-05
4.9718844371148027508e-05
4.9690742730545889771e-05
4.966212923642720345e-05
4.9631939933083452923e-05
4.9601874685103774013e-05
4.9573253357364474342e-05
4.9543450978081867342e-05
4.9507433491794610239e-05
4.9454597216589134311e-05
4.9360475583672082031e-05
4.9232788920762965207e-05
4.9093695482992078102e-05
4.8953743231406483523e-05
4.8825944930492285899e-05
4.8718299132301621384e-05
4.8634317787101350665e-05
4.8570059864676215511e-05
4.8521839121471626362e-05
4.8482341058286973533e-05
4.8441562101107669893e-05
4.8396959110765209804e-05
4.8349188005299954622e-05
4.829670348937710315e-05
4.8244826205621361558e-05
4.818664469518413524e-05
4.8125298193173852187e-05
4.8053034647687702357e-05
4.7971266997168025652e-05
8.5935975241442408333e-05
8.5792077115350286946e-05
8.5647504744762833389e-05
8.5499823573807786411e-05
8.5348044717274788038e-05
8.5193389694123062856e-05
8.5038216128417349368e-05
8.4884870795642701751e-05
8.4733739829072302974e-05
8.4584523103185851032e-05
8.4436249109272017762e-05
8.4289912205364649479e-05
8.4147098396788376712e-05
8.4010560216225775424e-05
8.3881281309595509955e-05
8.3759072241016969788e-05
8.3641881563119508444e-05
8.3527137603599455789e-05
8.3411802237180011693e-05
8.3293526940278564972e-05
8.3170302180568306174e-05
8.3042463307055855741e-05
8.2910298470606659657e-05
8.2775632153340680027e-05
8.2638723906897226129e-05
8.2501137400082077055e-05
8.2364101754954722112e-05
8.2230455712485004413e-05
8.209989665059243952e-05
8.1973293728114296204e-05
8.1847726628701589257e-05
8.1723698162828442896e-05
0.00011045347839421278807
0.00011026772146802415065
0.00011008075031408583557
0.00010989043839801231636
0.00010969872123410605389
0.00010950982709098444406
0.00010932741625768646046
0.00010915194675651938611
0.00010898021214005071454
0.00010880785389924850027
0.00010863276153740775913
0.00010845672545058668062
0.00010828303056798864446
0.00010811367483204517039
0.00010794776742230806235
0.00010778257889241231069
0.00010761533098652973424
0.00010744445804094068981
0.00010727017029113585552
0.00010709430461706211275
0.00010691859699023294607
0.00010674487059668689775
0.00010657401507658308885
0.00010640590288378638036
0.00010623941607605860021
0.00010607420139475783245
0.00010591026926524762532
0.00010574777700413064889
0.00010558554043469196555
0.00010542241309944665303
0.00010525620561381378629
0.00010508704705925227946
0.00010491328969475817565
0.0001420607312153517824
0.00014137254180448342714
0.00014071959921573969575
0.00014009744360431441177
0.0001395014311724563456
0.00013892770877525252582
0.00012344085439360409466
0.0001232477644955916904
0.00012304815069019990658
0.00012284063924717834003
0.0001226292853238526194
0.00012242043671453032585
0.00012221862758849655318
0.00012202388983235399396
0.00012183161855369820407
0.00012163692013122090311
0.00012143862723829629432
0.00012123988917376580827
0.00012104525465251397777
0.00012085693823743766232
0.00012067341516259389334
0.00012049087817063270874
0.00012030578838032958725
0.00012011660327754148812
0.00011992352844301322175
0.0001197282958985819391
0.00011953386508543427239
0.00011934254296006053533
0.00011915512911164611817
0.00011897078555940538834
0.00011878799898194410936
0.00011860591542849055935
0.00011842470120232050838
0.00011824435219188912519
0.00011806440250681271066
0.00011788320136887244622
0.00011769993672471690336
0.0001175138183668497752
0.00011732705224078958525
0.00011713775870264854484
0.00013561414883632536433
0.00013494559278049710906
0.00013429700279782958664
0.00013367588679827769726
0.00013308038141783272196
0.00013250781251350796943
0.00013195423157251126578
0.00011451879339800997331
0.00011432949699250724357
0.00011412292706474935181
0.0001139138443800800487
0.00011371747414929402823
0.00011354035079130201259
0.00011337782067245362786
0.00011321919274927899569
0.00011305532912272833258
0.00011288435732881703334
0.00011271365714114587762
0.00011255056038596386765
0.00011239644770300693643
0.00011224564539766098054
0.00011208991689874769958
0.00011192402741062472188
0.00011174928516144402217
0.00011157278813305494803
0.00011140373009656709641
0.00011125023504769252544
0.00011111613931419059341
0.00011100001486898123727
0.00011089665274264845604
0.00011079959073957250111
0.0001107052803925071368
0.00011061138891896177554
0.00011051669860690615371
0.00011041901385555331601
0.00011031685564757383658
0.00011020895532311146992
0.00011009608312145375511
0.00010998053411023520705
0.00010986556650096186922
0.00010975389491966497542
0.00010964609553971559758
5.3038335710643337244e-08
5.3057276063788931454e-08
5.3074762824623837674e-08
5.3073295078567592779e-08
5.3073934506443733613e-08
5.3052780958830987647e-08
5.3046088049417495881e-08
5.3034302706980172698e-08
5.302166011957785873e-08
5.3140878856103240761e-08
5.3103670536426843246e-08
3.2851641495115017889e-07
3.0100974449230284589e-07
2.7532621970916405484e-07
2.5159350751239670737e-07
2.2988353412791203291e-07
2.1024314012071068217e-07
1.9269280178647346291e-07
1.7721077649205223128e-07
1.6373589270045681719e-07
1.5217017213474076749e-07
1.4239507827543369107e-07
1.3428011140605146257e-07
1.2766101959133838045e-07
1.2232679889369346702e-07
1.1803785330733741872e-07
1.1456169639385430571e-07
1.1168920729053746076e-07
1.0926417578033516862e-07
1.0719537712844098487e-07
1.0544704161947751389e-07
1.0396449270775345534e-07
1.0271056229353934566e-07
1.0164903246843564606e-07
1.0076720785468586489e-07
9.9995468151565183782e-08
9.9294315767645982128e-08
9.8642542070942025084e-08
9.8098690124722621255e-08
9.7656311050878993704e-08
9.7297721638843494374e-08
9.6880398223698032207e-08
9.6308002799673374932e-08
9.5513893134238840084e-08
9.4602797719416907013e-08
9.3683998903565844904e-08
9.288324116196786607e-08
5.580628636226160066e-08
5.5744782665492753643e-08
5.5693060583203730995e-08
5.5652487978015932542e-08
5.5627451878388731113e-08
5.5624916008091775051e-08
5.5631460120011245768e-08
5.5639051350257870361e-08
5.5643337042127781437e-08
5.5638419988079586082e-08
5.5623447955687119036e-08
5.5604133509313961729e-08
5.5586194228610454813e-08
5.555544898529818581e-08
5.5530524471510706955e-08
5.548904769920237133e-08
5.5464679026041836985e-08
5.5438323712781590323e-08
5.541718233311743585e-08
5.5514732209193220943e-08
5.546461162887200073e-08
3.4540503342900715512e-07
3.1590522569213149698e-07
2.8847811153206726937e-07