/*--------------------------------*- C++ -*----------------------------------*\
  =========                 |
  \\      /  F ield         | OpenFOAM: The Open Source CFD Toolbox
   \\    /   O peration     | Website:  https://openfoam.org
    \\  /    A nd           | Version:  12
     \\/     M anipulation  |
\*---------------------------------------------------------------------------*/
FoamFile
{
    format      ascii;
    class       volScalarField;
    location    "0.0051";
    object      p;
}
// * * * * * * * * * * * * * * * * * * * * * * * * * * * * * * * * * * * * * //

dimensions      [1 -1 -2 0 0 0 0];

internalField   nonuniform List<scalar> 
106891
(
98681.679527636835701
98678.683521754443063
98674.309857611893676
98668.973004221479641
98662.948358516165172
98656.743720357189886
98650.68493166990811
98645.015285696805222
98639.777422129147453
98634.960206557749189
98630.036395008282852
98418.701351554744178
98411.076546136580873
98403.593719218217302
98400.814999902897398
98406.840361883907462
98422.93868678616127
98447.099802540004021
98475.153813504672144
98502.744456479456858
98526.5699254207575
98544.788149635467562
98556.921993082316476
98563.589811973084579
98566.365858100383775
98567.655401865253225
98569.891408363604569
98573.984824659550213
98578.54446763258602
98581.010727124201367
98580.337703164565028
98578.669219144998351
98580.581350296037272
98590.098031939662178
98607.856161695483024
98630.558346140547656
98652.942766116495477
98671.146205383323831
98683.630593503723503
98689.464267712275614
98686.923718881720561
98674.145648610792705
98651.527518664865056
98623.255191042175284
98596.894243283939431
98579.838781079553883
98575.874470294264029
98583.574105154824792
98598.555239054156118
98706.438006767755724
98711.811543094328954
98716.178241390793119
98719.539006880047964
98721.935176607323228
98723.318346595129697
98723.504883913701633
98722.526741217021481
98720.366048077165033
98716.882747647468932
98711.784745747194393
98705.254929081958835
98698.072283300862182
98690.61137090853299
98683.255574183334829
98676.376120514411014
98670.438352936791489
98665.392392526846379
98661.154017353488598
98657.020936214947142
98398.716159950723522
98391.830404499851284
98390.787209077723674
98400.447131813474698
98421.96696533690556
98451.902366009657271
98483.891226624517003
98511.896848788499483
98532.664301767421421
98546.12573954241816
98554.08344629756175
98558.782021236373112
98562.264926776755601
98566.222837923371117
98571.801922458151239
98578.642043247178663
98584.474213163121021
98586.658157292346004
98584.596298022486735
98581.150496502508759
98581.191269371192902
98589.038735427326174
98605.729748925979948
98628.507120959853637
98652.959587520497735
98674.748222271504346
98690.68624656467
98698.637109765957575
98696.500917105659028
98682.952217052777996
98659.329529511131113
98630.915921486011939
98605.520707891933853
98589.905898425262421
98587.164316456750385
98595.350810334843118
98746.876276305221836
98754.562301770405611
98760.184673975440091
98763.625844499125378
98765.0155800380453
98764.622695574042154
98762.59025833720807
98758.969112068749382
98753.831710492246202
98747.220786282807239
98739.34807992351125
98730.638423989206785
98721.229104005586123
98712.206977648223983
98704.037467112138984
98697.192772825233988
98691.824900327876094
98687.799343368416885
98684.908939935572562
98682.252826539377565
98394.438440517595154
98390.848554070937098
98393.879815301072085
98408.430307911650743
98435.039281189616304
98468.679790340145701
98501.218481148011051
98525.657280461324262
98539.78428702733072
98546.280230931632104
98549.786196817251039
98554.090899423288647
98560.965859216215904
98570.041697831402416
98579.74875962252554
98588.00461150832416
98592.85931971106038
98593.100782804773189
98589.67820949848101
98585.757262154234922
98585.917820684233448
98593.597678258374799
98609.328116755626979
98631.037637795932824
98654.891046159536927
98676.711434699871461
98693.280833454336971
98702.002403249396593
98700.491530928848078
98687.727559695878881
98665.775740185461473
98640.188423024083022
98618.357118623403949
98606.290460638541845
98606.371795952727553
98616.07569312225678
98802.769122126075672
98807.795083045697538
98809.354761597598554
98807.909793552127667
98804.102127828067751
98798.404978411810589
98791.094506208915845
98782.409291504241992
98772.517441972260713
98761.580797876245924
98749.940065264760051
98738.316299731421168
98727.453474460155121
98718.418306379055139
98711.713349597586785
98707.370711827708874
98705.085830176409218
98704.312526022127713
98703.955464408252737
98400.914184676919831
98409.730799072785885
98429.484138855172205
98459.555734333931468
98493.874157105412451
98523.440619218701613
98541.43058792562806
98547.237154607035336
98546.122376087863813
98545.679391673897044
98551.338750831127982
98563.790315431935596
98579.437620827782666
98593.00329595299263
98600.748315312957857
98602.087848568000481
98599.217607854807284
98595.332316724539851
98593.539170873700641
98596.634819228260312
98606.308076944973436
98622.012118012440624
98641.503552154201316
98661.701874673759448
98679.664238369674422
98693.009844251690083
98699.685674514359562
98698.280619932018453
98688.722045013433672
98672.91751281703182
98654.936246746670804
98640.174499922446557
98633.463884377793875
98636.461676084218198
98844.914568640931975
98852.493186306208372
98854.95417396267294
98852.822262930232682
98847.051080777659081
98838.696942624723306
98828.647175585705554
98817.445337213808671
98805.398317368948483
98792.657856229576282
98779.379972502065357
98765.878182794462191
98752.668467140800203
98740.682388518194784
98730.895323402233771
98724.010930619726423
98720.259539738646708
98719.276907836072496
98720.415628176779137
98722.528492329962319
98422.078528751881095
98436.096882394209388
98458.694923799295793
98488.519631159404526
98519.787616007917677
98544.282636856471072
98555.989947074616794
98554.905624793609604
98547.760665484442143
98544.466017252052552
98551.988262589700753
98569.946591870262637
98591.17303594131954
98606.820601751547656
98612.483328136411728
98610.033680072097923
98605.081408419646323
98602.968171680331579
98606.706464772723848
98616.378416703140829
98630.189018119548564
98646.173160241145524
98661.994999634378473
98675.596953203348676
98685.936104922089726
98692.551806830379064
98695.308610665320884
98694.598160944093252
98691.000546965529793
98684.931797454104526
98677.695087461703224
98672.087363737038686
98671.137929950185935
98895.288307872484438
98893.517738989728969
98886.624649857985787
98876.111044688746915
98863.529397688864265
98850.084465391555568
98836.334883845469449
98822.430099281002185
98808.399194473066018
98794.267227681266377
98780.234703466267092
98766.833199507396785
98754.857841746896156
98745.103937646155828
98738.407369689666666
98735.107607420999557
98735.000276477672742
98737.508018527994864
98741.625363407059922
98468.48217604002275
98488.595760630472796
98512.717929093952989
98537.428763756644912
98557.027296216401737
98565.825638282141881
98562.666994653976872
98553.692289145081304
98549.233157636321266
98556.835874419222819
98575.911742652955581
98598.339248539370601
98614.471074141998542
98619.756367263704306
98617.247869962098775
98614.716928310881485
98618.82535885181278
98631.139341271162266
98648.456881087622605
98665.995270686980803
98680.44554386731761
98690.469969875353854
98696.099790027845302
98698.092471379684866
98697.749775650852825
98697.041640068651759
98697.66966148665233
98699.931463477652869
98703.017479309928603
98706.032569522183621
98708.917008566073491
98712.629324742025346
98921.282242730056169
98914.571595003581024
98903.298601662099827
98889.363685564676416
98874.436011229510768
98859.683843044796959
98845.606884558175807
98832.168598459044006
98819.103029098158004
98806.251924748488818
98793.671226277379901
98781.700211619085167
98770.997582463256549
98762.365025217164657
98756.480046223005047
98753.73270768194925
98754.219988949407707
98757.590052245359402
98763.129559674285701
98513.307785169454291
98526.512478196062148
98542.107403979651281
98557.507876679650508
98567.806573852678412
98569.5946313906461
98565.001279769465327
98561.097403615960502
98564.875542470501387
98578.179115186037961
98596.496291897245101
98612.734704462505761
98623.10050110174052
98629.875414098773035
98638.301574475030066
98651.826971894101007
98669.857769355206983
98688.621626780732186
98704.010158450590097
98713.870770477558835
98718.297703870528494
98718.44445503220777
98715.798016593471402
98712.279093058881699
98710.150479845280643
98711.13677401287714
98715.738604690588545
98723.120254287467105
98731.66116654536745
98739.865355386078591
98914.658164063162985
98902.130889768523048
98888.458706600402365
98874.861726627510507
98862.058520281803794
98850.303854551239056
98839.352226341579808
98828.819284994286136
98818.476531131804222
98808.382515166129451
98798.866686864450458
98790.430818418390118
98783.678343494422734
98779.117138967572828
98777.265375604751171
98778.190156485507032
98781.836296154055162
98787.609110267600045
98528.607685151917394
98534.494291203227476
98547.07263934610819
98562.497797835851088
98574.482241474979674
98578.803554085869109
98576.733692315188819
98574.356659015509649
98577.974237282949616
98590.259111099454458
98609.938370900184964
98633.478721487030271
98657.653944257399417
98680.422483391841524
98700.019873042328982
98715.010517880713451
98725.075716293911682
98730.971837934295763
98734.099399043916492
98735.790762583652395
98736.5574512140156
98736.154935687140096
98734.561202577868244
98732.679138092018547
98732.12962541282468
98734.38350651980727
98739.97269699833123
98748.289772254051059
98899.511500383319799
98888.628036618858459
98878.088671860634349
98868.584505880775396
98860.288613579425146
98852.964398328011157
98846.160249202919658
98839.429322931508068
98832.501970057797735
98825.509997740737163
98818.857886637924821
98813.037943018774968
98808.534793283120962
98805.791467265342362
98805.096773769299034
98806.457928563511814
98809.852998876463971
98814.816002894658595
98524.535090268473141
98535.180737393529853
98555.483766548917629
98576.970869401789969
98590.447727175385808
98592.477098334595212
98587.734691161400406
98585.992318870863528
98596.25714171717118
98621.643612189465784
98658.231966126200859
98697.215833640191704
98729.222579770794255
98748.44613969521015
98753.807825930722174
98748.776044098223792
98740.105863378514186
98734.465814464987488
98734.991671969764866
98740.243904387025395
98746.234877471302752
98749.568654790346045
98749.318668173888
98746.962547717717825
98745.20368496903393
98746.586084699520143
98751.985167843478848
98868.220512515399605
98863.912435707810801
98860.93254198761133
98858.773636067999178
98856.802391816905583
98854.49330273985106
98851.559444642029121
98847.979828850729973
98843.977822465632926
98840.042761810036609
98836.783359723282047
98834.589915798671427
98833.768452918942785
98834.450307093226002
98836.377383992366958
98839.128712449775776
98842.223043749982025
98524.235668894456467
98523.1636259619263
98534.387855196560849
98556.330990460788598
98581.700939291884424
98601.289023775534588
98609.963297022608458
98610.190006817472749
98610.824555163097102
98621.833506479422795
98648.623978205956519
98688.483618737242068
98731.158159901548061
98763.841066163309733
98777.523152130233939
98771.312557434415794
98752.32707225503691
98731.49065150784736
98717.90956293301133
98715.188680757608381
98721.115429985467927
98730.141518266435014
98737.017521003392176
98739.449578057348845
98738.513313332761754
98737.147542221733602
98738.08168328650936
98851.258934729063185
98853.92635180176876
98856.736043487413554
98858.991552387335105
98860.278785935137421
98860.489181833021576
98859.799248907234869
98858.651298921686248
98857.53281531612447
98856.906639476888813
98857.127427486921079
98858.229777138651116
98860.008246939396486
98861.932027264978387
98863.425504367405665
98864.051866682610125
98526.137853865366196
98530.155874791802489
98545.52544147412118
98568.702935835914104
98593.162834153728909
98612.975843308537151
98625.536011006421177
98632.568861644424032
98639.382474050027668
98652.361615419227746
98675.508377125806874
98707.47118851270352
98741.102665988670196
98766.38613416973385
98775.177909060192178
98765.581294462215737
98743.181642013572855
98717.99454232568678
98699.096495999590843
98690.581234982877504
98690.944472968301852
98695.582660364336334
98700.317281571085914
98703.533057888969779
98705.944414726604009
98709.022702412141371
98713.65498937907978
98719.647401384674595
98846.851665812457213
98851.000703313824488
98854.54637252962857
98857.363942191805108
98859.599957901460584
98861.514217940566596
98863.383336625382071
98865.445198256245931
98867.802620250658947
98870.493547791047604
98873.242834754506475
98875.560196770427865
98876.98861565614061
98877.153561224971781
98875.696480470884126
98540.723338961703121
98559.410167602240108
98582.57655540680571
98604.988077046320541
98623.693685344143887
98638.34911390353227
98650.353834198351251
98661.874046247059596
98675.249114631456905
98692.210258578459616
98712.723615970957326
98733.710993471424445
98749.352854169061175
98753.944971151897334
98745.376823780039558
98726.677495824100333
98704.494138654117705
98685.420559792488348
98672.820924910760368
98666.323639864946017
98663.727485161507502
98663.427391321674804
98665.345881411034497
98670.000757444664487
98677.048221080171061
98684.944037985231262
98692.205687522742664
98844.601849616359686
98847.505997689004289
98850.296279746005894
98853.349818149916246
98856.9281295662513
98861.159193213054095
98865.928969783752109
98870.949981396945077
98875.797317385542556
98879.944450134018552
98882.884971428182325
98884.133017032843782
98883.418803244523588
98880.722025975905126
98573.839622368657729
98595.817245784797706
98615.838522772479337
98633.223978237438132
98649.052762514416827
98664.051896337303333
98677.605560153140686
98688.749722759035649
98697.660300955874845
98705.578070699062664
98712.97985519519716
98718.223937332601054
98718.498002230204293
98712.154199255164713
98700.149345382582396
98685.430483342744992
98670.998857865182799
98658.284699650219409
98647.35941742513387
98638.394186928242561
98632.752995626346092
98632.227520299362368
98637.14202929707244
98645.440717795165256
98653.744599399753497
98659.905587812099839
98837.81937152305909
98839.809874521160964
98843.022161089727888
98847.781975796460756
98853.953120746416971
98861.083642114201211
98868.529886548552895
98875.42076651082607
98880.983950584297418
98884.612591689947294
98885.895752689873916
98884.832344722759444
98881.619340840610676
98606.657779058339656
98624.208320536752581
98640.105881505311118
98655.840753696698812
98671.148640195460757
98683.510626096118358
98690.304771022318164
98691.097451852925587
98688.014604435200454
98683.821715025624144
98679.952063729288056
98676.090843015845167
98671.378771809060709
98665.66532519737666
98659.433105978183448
98652.704052110319026
98644.499340225840569
98634.11701266161981
98622.887025082236505
98614.158468807669124
98611.070401814009529
98613.900128816894721
98619.627766976991552
98624.238653043372324
98626.098359994823113
98827.431882513148594
98830.756425837360439
98836.450864955942961
98844.190640910135699
98853.240104994707508
98862.576144875725731
98871.093475401590695
98877.837854477387737
98882.137454455005354
98883.767487649311079
98882.925412859083735
98880.087818306143163
98629.473946883925237
98643.217866358623723
98657.097472118141013
98670.079055694513954
98678.662577119408525
98679.788312755757943
98673.254235850239638
98661.938025823008502
98649.780578820922528
98639.591167358943494
98632.373715895882924
98628.142187585821375
98626.870616902175243
98627.982548503438011
98629.689689920691308
98629.177411383134313
98624.398973077273695
98616.099713870906271
98607.605539248790592
98602.378709061216796
98601.008944805609644
98600.629393975192215
98598.036250493358239
98593.281153554067714
98642.351297035085736
98652.600821182495565
98660.853572494524997
98663.831455091654789
98658.831247661248199
98646.314416677909321
98629.818724659315194
98613.604007311922032
98600.397637687914539
98591.288875155500136
98586.866905223141657
98587.829624499063357
98594.124303574833903
98603.620755788040697
98612.266977409366518
98616.254798449779628
98614.47428577739629
98608.895622859738069
98602.190731100796256
98595.180540114917676
98586.463662138470681
98575.09323299168318
98563.415729484622716
98644.585049053523107
98640.93142109591281
98630.086522070399951
98613.361932506697485
98594.61061220819829
98577.666060936579015
98564.42460585963272
98555.223820597195299
98550.659146187274018
98552.294198173331097
98561.466670784371672
98576.913475759865833
98594.202308012565481
98607.742862647195579
98613.879111965215998
98612.206089062034152
98604.092448045368656
98590.913824525137898
98573.704686435710755
98554.524445043774904
98537.847212160762865
98559.238304173632059
98544.220266595686553
98533.116080769381369
98525.161344377047499
98520.778569559508469
98522.422241972701158
98532.89000082606799
98552.158587659505429
98576.004287648800528
98597.537204085063422
98610.559150795481401
98612.005621705844533
98602.085004035878228
98583.280639633871033
98559.411612281328416
98535.354863711516373
98516.890427819438628
98497.380621532822261
98498.740024522528984
98509.399480839914759
98530.572440069168806
98558.447551703298814
98585.163139145312016
98602.415198980612331
98605.082607060248847
98592.855004136028583
98569.679978284315439
98541.965722464301507
98516.63980142075161
98499.805637849029154
98480.870393215547665
98490.935622938122833
98512.23812389424711
98541.3560244559485
98569.88485337010934
98588.269064146719757
98590.310247960602283
98575.827733004829497
98550.187226167254266
98521.634266077540815
98498.158088338750531
98485.369240601212368
98454.96292931244534
98447.133652142714709
98443.552685130300233
98438.754865383525612
98428.753376761218533
98414.305140959128039
98400.17948621737014
98391.046341327644768
98386.791358695219969
98382.456160205416381
98371.977528478542808
98352.278743416187353
98324.289211201379658
98291.246588756286656
98257.217114214989124
98226.979451210951083
98205.154369878044236
98193.916165306101902
98191.830578904002323
98195.360391018417431
98470.999364253846579
98454.47606632518
98446.466463097778615
98442.437306678286404
98435.713113411649829
98422.752171756015741
98406.232991989949369
98392.444513768641627
98385.81467351190804
98385.002338877646253
98383.663752379448852
98374.834320098583703
98355.146280996850692
98325.886476019470138
98290.982969784017769
98255.586899229005212
98225.019949741414166
98203.575267742504366
98192.510310207042494
98189.841019037121441
98192.468174993889988
98198.175843429664383
98532.203075682205963
98501.033082236899645
98472.162909976745141
98453.462727150152205
98445.470375804667128
98441.354752937753801
98433.018238415432279
98417.38022246802575
98398.903424429052393
98385.359132039215183
98381.186746334598865
98383.648106071093935
98385.099431399386958
98377.7709950136923
98358.000669759028824
98327.335581226405338
98290.569184302788926
98253.915578426080174
98223.221458582789637
98202.319672172976425
98191.496085084654624
98188.328563683215179
98190.10342257861339
98195.303163918084465
98203.410176050339942
98213.279965311230626
98571.477443910524016
98543.723912810266484
98506.263128255668562
98472.619143846619409
98452.111395446932875
98444.335490908662905
98440.459171184906154
98430.79532943511731
98412.748851724056294
98392.434623624372762
98379.114166705170646
98377.15682695202122
98382.690032774829888
98386.740235519187991
98380.664471684081946
98360.656278996204492
98328.572014296252746
98290.037603583725286
98252.239834186155349
98221.530812360651908
98201.23401930082764
98190.697518157045124
98187.134823070649873
98188.146157005510759
98192.931960510584759
98201.152155645206221
98211.269779180918704
98220.30938639928354
98595.217506597036845
98585.594238624384161
98553.451110580383101
98510.350923975143814
98472.467811982132844
98450.488129719844437
98443.16590066102799
98439.815385094014346
98429.165417807147605
98408.921039097447647
98386.911357603399665
98373.724442743128748
98373.756128492794232
98382.116655008736416
98388.437890764922486
98383.433077287263586
98363.137630216922844
98329.633843833697028
98289.409263680820004
98250.577319180985796
98219.902003122813767
98200.213911814367748
98190.017419898416847
98186.155978050242993
98186.528305230545811
98190.971985989963287
98199.332530981308082
98209.751285651072976
98218.758100176972221
98223.180852706645965
98591.756896069055074
98607.302619113965193
98597.425107760689571
98561.345241493429057
98513.243816560818232
98471.760077816143166
98448.656294531596359
98442.069651316822274
98439.465607048143283
98428.096866601757938
98405.892090642460971
98382.315932516445173
98369.163106197767775
98370.925184737352538
98381.787884443270741
98390.146840947534656
98386.04887390503427
98365.385332117701182
98330.50537362373143
98288.70437924246653
98248.943081871140748
98218.324095727090025
98199.215933410625439
98189.411163634373224
98185.322416056034854
98185.170270100832568
98189.327000605830108
98197.878521853956045
98208.62811904202681
98217.682859670952894
98221.802610092039686
98220.043677130073775
98598.621980753916432
98616.936685651322477
98606.734446899761679
98567.345280673791422
98515.067136807672796
98470.74041660783405
98446.851645621907664
98441.144282775407191
98439.352240090316627
98427.470000306653674
98403.636456328909844
98378.69592320547963
98365.509461117399042
98368.681649698424735
98381.656269314727979
98391.751627906502108
98388.334930569893913
98367.252292314791703
98331.179649896352203
98288.023944161323016
98247.460838675237028
98216.892189367325045
98198.298448061003
98188.865685863886029
98184.615595295632374
98184.038173942171852
98187.989862487433129
98196.751457073012716
98207.84721832521609
98216.980489971509087
98220.877812776932842
98218.921559073161916
98212.552061034788494
98669.742368005958269
98696.626413762103766
98718.297121011361014
98732.498645421481342
98744.536105024701101
98769.310509571470902
98603.593286213974352
98623.961085492934217
98613.341020734718768
98571.435841131591587
98516.014576488072635
98469.664478290171246
98445.357348037970951
98440.483987569648889
98439.434413619950647
98427.192022769202595
98402.131874904196593
98376.133489283718518
98362.898895144680864
98367.104181566333864
98381.647259048593696
98393.043281314399792
98390.10103099855769
98368.660040101109189
98331.659734496206511
98287.458636789568118
98246.288747646540287
98215.756560252717463
98197.572320957449847
98188.427031595347216
98184.076300423359498
98183.190626892290311
98187.006843676252174
98195.953522390074795
98207.346789179457119
98216.552773607778363
98220.293490854863194
98218.148216455665533
98211.988098995803739
98204.150070143354242
98635.648028169671306
98670.798351873556385
98697.419187297156896
98718.854713764347252
98732.26319937761582
98742.856366390857147
98767.214088691602228
98606.332852043691673
98627.761279032420134
98616.704854094190523
98573.399524367283448
98516.245830728148576
98468.836091288365424
98444.464256125444081
98440.141710745956516
98439.567719764192589
98427.081714001353248
98401.323575937771238
98374.725633670270327
98361.495431693751016
98366.298752505419543
98381.726217040006304
98393.839780457827146
98391.102693771506893
98369.405159680434735
98331.854713689142955
98287.049038273718907
98245.54778140228882
98215.051173410203774
98197.11665243373136
98188.137066348775988
98183.742586211737944
98182.701015892031137
98186.457209800020792
98195.539517029668787
98207.126400218985509
98216.388271769625135
98220.021458350471221
98217.790174622248742
98211.7370047710574
98204.097564500872977
98197.361910510531743
98712.06858300739259
98722.052122142151347
98726.346035732203745
98724.083040707162581
98715.341019828629214
98700.948285544582177
98682.337581668441999
98661.359005859179888
98639.976643946487457
98620.179335883498425
98603.072478530579247
98411.069158102924121
98415.74239718732133
98416.869147539167898
98419.054393445214373
98425.275588236821932
98436.176926064741565
98450.826940592494793
98468.233352935159928
98487.665058190817945
98508.048054169164971
98527.436454779788619
98544.184013447491452
98557.419185139544425
98567.077552201793878
98572.93857448133349
98574.126524026025436
98570.334406836816925
98563.91394751300686
98560.190219199386775
98564.743003322728327
98579.392282099215663
98600.178420181706315
98618.811913869983982
98628.072847502509831
98626.886289631860564
98621.014488203189103
98619.338799346922315
98627.841408549167681
98645.501394543607603
98665.227396078320453
98678.412615464083501
98680.295856761396863
98672.679828211315908
98661.635425488231704
98653.043450459896121
98649.49628103095165
98695.587216679850826
98678.529173158851336
98666.008052317760303
98659.053288751369109
98658.1430940717255
98663.210961545162718
98673.529602203430841
98687.627375199430389
98703.577328757062787
98719.12838537080097
98731.976785537684918
98740.200971352314809
98742.513480472523952
98738.315611748941592
98727.876724195972201
98712.310532280505868
98693.312154113766155
98672.826256890897639
98652.659023084139335
98634.510079699466587
98619.210750824538991
98397.334263788812677
98407.230041937276837
98415.176992986234836
98424.161257894375012
98434.984221258651814
98446.683623115619412
98458.258572928636568
98469.883964618275058
98482.603482227306813
98496.998399520802195
98512.300612046848983
98526.953214642519015
98539.696147324211779
98549.571413781275623
98555.678323542480939
98557.258853669351083
98554.996711165134911
98552.647797358062235
98556.413481463663629
98571.597665635228623
98598.595381322491448
98630.79932540327718
98657.343199803406605
98669.75859637184476
98667.027555063657928
98656.261134259329992
98648.162856362687307
98650.130227861765889
98662.028253814743948
98677.138292911287863
98687.003023850760655
98686.923962498505716
98678.338429220777471
98666.986156241910066
98658.867658156494144
98657.388871456831112
98725.716509497724473
98708.45173107626033
98695.547369079838973
98688.21796708763577
98686.957064687114325
98691.500399438009481
98700.87710392671579
98713.465149179057335
98727.22174057304801
98739.881544465053594
98749.401643977311323
98754.265186073462246
98753.485525327618234
98747.037911167557468
98735.474629311778699
98719.968344845401589
98702.214641469952767
98684.04330484381353
98666.853490830239025
98651.902137837285409
98639.543622717857943
98412.310075769812101
98426.543195944512263
98440.510879501947784
98453.468922092724824
98463.749850395150133
98471.043379728624132
98476.823113519436447
98483.185765833652113
98491.431156283564633
98501.553524363334873
98512.581353169109207
98523.478967490285868
98533.188723137005582
98540.267135742134997
98543.415396649274044
98543.570378206379246
98545.072885747329565
98554.637364950584015
98577.868938534840709
98614.56089066369168
98656.474731467780657
98691.00158681483299
98708.282523910806049
98706.376093835948268
98692.549097017414169
98677.901590282825055
98670.540700615703827
98672.400484204044915
98679.695254389938782
98686.195960136654321
98687.201092830408015
98682.303213561594021
98675.267763561030733
98671.056524342915509
98737.858432840672322
98726.458487862764741
98720.2039280119061
98719.424234669466387
98723.579221142266761
98731.430791771708755
98741.283063833005144
98751.136928454070585
98759.148998737917282
98763.839712259199587
98764.168918870243942
98759.927768493362237
98751.397301417062408
98739.474548703845358
98725.37024831699091
98710.49670923803933
98696.228140577164595
98683.496116924710805
98672.873132192529738
98664.325557147662039
98431.097356916798162
98448.627289863681654
98463.61223629527376
98475.858719818366808
98484.247595504304627
98488.719749411087832
98491.055282121888013
98493.223418618203141
98496.244091935484903
98500.356561108652386
98505.699041956322617
98512.547175097337458
98520.568085513557889
98528.372068245458649
98534.121941494508064
98537.783594378386624
98543.066248807532247
98556.53571818061755
98583.926889760405174
98625.183869043656159
98672.369107945720316
98712.715015859314008
98735.278498891755589
98736.841114358205232
98722.521256948792143
98701.642343412531773
98683.521509389902349
98673.626205617765663
98672.132394124724669
98675.840181749357725
98681.063665676687378
98685.647341763222357
98689.302438438258832
98692.965502024060697
98767.628502435836708
98759.427904742071405
98755.520208236121107
98755.712985926962574
98759.206709121004678
98764.618106080015423
98770.346605697239283
98774.903938788804226
98777.029927768220659
98775.940099187733722
98771.446335159431328
98763.870825400896138
98753.894360092526767
98742.619878721015994
98731.08529876403918
98720.23540606640745
98710.760991760180332
98703.067357213018113
98697.399003467042348
98693.185273018301814
98477.793897329160245
98490.082503966477816
98498.99327713951061
98505.833695245353738
98510.728599920446868
98513.834262294636574
98515.114698577861418
98514.292725071936729
98511.881529239850352
98509.619512018267415
98509.776780979766045
98513.834009120822884
98521.242798881838098
98529.926260633888887
98538.353694259218173
98548.197069496265613
98564.425191362490295
98591.949185030607623
98631.365850544141722
98676.942961449953145
98718.226544840872521
98744.786061675593373
98750.994331736772438
98738.199782351395697
98713.617830127855996
98686.766459608188597
98665.929642075949232
98656.21938456625503
98659.167707283588243
98672.875873877186677
98692.033255179951084
98710.160257376570371
98796.296643228459288
98795.019733711204026
98795.940790768392617
98798.099379699619021
98800.32940834024339
98801.352782973073772
98800.171317665473907
98796.378409094351809
98789.917207043996314
98781.106156841429765
98770.805966243642615
98760.135748879329185
98749.949898021252011