/*--------------------------------*- C++ -*----------------------------------*\
  =========                 |
  \\      /  F ield         | OpenFOAM: The Open Source CFD Toolbox
   \\    /   O peration     | Website:  https://openfoam.org
    \\  /    A nd           | Version:  12
     \\/     M anipulation  |
\*---------------------------------------------------------------------------*/
FoamFile
{
    format      ascii;
    class       volScalarField;
    location    "0.0051";
    object      p_0;
}
// * * * * * * * * * * * * * * * * * * * * * * * * * * * * * * * * * * * * * //

dimensions      [1 -1 -2 0 0 0 0];

internalField   nonuniform List<scalar> 
106891
(
98681.793327920080628
98678.715981053843279
98674.291262114973506
98668.917702704842668
98662.874277041904861
98656.671455632895231
98650.629665684755309
98644.988752325574751
98639.780000038110302
98634.983540241140872
98630.078097172576236
98417.575005446735304
98409.923349008429796
98402.578301439541974
98400.124428624258144
98406.592411701218225
98423.120970215182751
98447.588359973509796
98475.773626269670785
98503.335041705839103
98527.011719606831321
98545.016289834544295
98556.925738285688567
98563.406988538947189
98566.082566850382136
98567.381316780432826
98569.708161326489062
98573.884717002758407
98578.438260832132073
98580.811250077545992
98580.0585653938615
98578.446129913150799
98580.596392295672558
98590.451285592818749
98608.497999062761664
98631.313172101057717
98653.624061531751067
98671.656000198054244
98683.929189586327993
98689.499424658934004
98686.623665684615844
98673.474010257064947
98650.572093579015927
98622.251563015655847
98596.137001944240183
98579.544319694337901
98576.072312028103624
98584.135377869766671
98599.302768763867789
98706.639073405836825
98712.035206718850532
98716.419534223503433
98719.782559232262429
98722.165009465810726
98723.507340678886976
98723.63191169705533
98722.572632153678569
98720.313976836725487
98716.722379911181633
98711.548069119846332
98704.957613837279496
98697.761979567309027
98690.32179108337732
98683.008591341596912
98676.193779093766352
98670.327344997582259
98665.344134279323043
98661.155219410808058
98657.050046761578415
98397.641762980725616
98390.913969846500549
98390.252071747250739
98400.417922211883706
98422.399030298693106
98452.595811963590677
98484.591416835595737
98512.408983073721174
98532.90993437464931
98546.128538998600561
98553.915563089976786
98558.527056420818553
98562.007566690721433
98566.035383295864449
98571.716067443892825
98578.603897894878173
98584.371390462576528
98586.40833509292861
98584.236255750409327
98580.838392798003042
98581.117516537022311
98589.322003388646408
98606.337114560737973
98629.297025038729771
98653.760146773813176
98675.405191246114555
98691.095228905716795
98698.720336022714037
98696.186261599883437
98682.232342208153568
98658.342474690449308
98629.925559121256811
98604.819329351012129
98589.683535762582324
98587.437933738256106
98595.965816465235548
98747.135438382683787
98754.77386383623525
98760.338096652427339
98763.715459766215645
98765.035035596141824
98764.564835712328204
98762.438996610362665
98758.712795287385234
98753.467853025096701
98746.755253320006886
98738.777889826204046
98730.003792124000029
98720.604382188466843
98711.635289092417224
98703.562658310809638
98696.836233716938295
98691.595208880477003
98687.689147709112149
98684.885943491433864
98682.277376194731914
98393.589652357070008
98390.177113961675786
98393.609881762356963
98408.669918166619027
98435.694218332049786
98469.479028177782311
98501.852006330402219
98525.934067376176245
98539.715655064283055
98546.010808184917551
98549.482007503873319
98553.864605836875853
98560.853046743330196
98570.014885228316416
98579.743217688213917
98587.941902653663419
98592.664356808076263
98592.754356606266811
98589.256245619020774
98585.415228738609585
98585.826366663561203
98593.839824286638759
98609.877926516273874
98631.783767900313251
98655.673915753068286
98677.383176235874998
98693.727280928113032
98702.119693502987502
98700.204050294632907
98687.056859678094042
98664.881964113272261
98639.339844323505531
98617.827228740046849
98606.240689550890238
98606.790026705552009
98616.781354841485154
98802.898514200423961
98807.774210849209339
98809.193212958416552
98807.625119597738376
98803.708256668949616
98797.90482757218706
98790.490798476021155
98781.704602024357882
98771.720625754140201
98760.714668578759301
98749.040126514242729
98737.422370953703648
98726.644445920741418
98717.744356011331547
98711.202883564998046
98707.02994942960504
98704.902003201947082
98704.248723649696331
98703.96448215165583
98400.590013120148797
98409.793199012041441
98429.988094656160683
98460.356108654523268
98494.656929372285958
98523.881778793933336
98541.385669169103494
98546.813710744871059
98545.587550455675228
98545.299690075291437
98551.238515463410295
98563.910254025831819
98579.602281991275959
98593.032776906271465
98600.556844713675673
98601.710618392811739
98598.763227265240857
98594.920751302794088
98593.282488893062691
98596.628846457548207
98606.578813763393555
98622.506480642332463
98642.119429756843601
98662.32151022850303
98680.187409272271907
98693.34990452133934
98699.769533624959877
98698.076823163180961
98688.273300088039832
98672.343888774106745
98654.432873547571944
98639.938642281354987
98633.62585753131134
98636.986321922347997
98845.07333499311062
98852.397475356570794
98854.616291467929841
98852.280000693353941
98846.35322849889053
98837.886432533428888
98827.75390047604742
98816.484802870909334
98804.375393557653297
98791.578606916955323
98778.262704535954981
98764.755485679241247
98751.592061547038611
98739.70863822294632
98730.085868980677333
98723.403535242774524
98719.856542385619832
98719.054930596917984
98720.341147544662817
98722.543000565739931
98422.102230273390887
98436.431466783615178
98459.341187516620266
98489.317255262358231
98520.441618148121051
98544.503662246686872
98555.669958723257878
98554.199521926246234
98547.026054208603455
98544.055957651609788
98552.037297839488019
98570.292436511444976
98591.476917790801963
98606.809714702118072
98612.122683646230143
98609.493887732882285
98604.592400782901677
98602.696362466478604
98606.711347240241594
98616.60883623934933
98630.559318590254406
98646.597677984464099
98662.384173856553389
98675.90295257998514
98686.143477158620954
98692.658354226165102
98695.325279921395122
98694.555090666734031
98690.914010660912027
98684.820905167463934
98677.629379850070109
98672.178546003109659
98671.45195120893186
98894.802564025259926
98892.7187609293469
98885.590519622754073
98874.929254777700407
98862.276008002692834
98848.804793563525891
98835.043659177870722
98821.137829597180826
98807.098603188831476
98792.96384983099415
98778.954387062854948
98765.618956500591594
98753.767375560011715
98744.194778798919288
98737.719502831590944
98734.651328048450523
98734.752757068068604
98737.427701849024743
98741.664598993200343
98468.865047234328813
98489.135348752359278
98513.310016117378836
98537.883845838659909
98557.115765044145519
98565.4155767976481
98561.878932338906452
98552.889716349294758
98548.798551934742136
98556.910129519848851
98576.301446157696773
98598.666929341401556
98614.447008348506643
98619.367411809958867
98616.744381953481934
98614.420774967875332
98618.905987412872491
98631.53708337948774
98648.974203131074319
98666.444238110881997
98680.724116738449084
98690.562127648823662
98696.040722179677687
98697.949528432378429
98697.611450372598483
98697.003977843167377
98697.773727602660074
98700.154419205762679
98703.303699845942901
98706.337321567771141
98709.24259194851038
98712.99045271651994
98920.329518969519995
98913.299505921706441
98901.819774828123627
98887.789118088257965
98872.851872003331664
98858.141582042182563
98844.114113455216284
98830.703610529599246
98817.660754924843786
98804.832337532759993
98792.290762520598946
98780.399017952135182
98769.827862603182439
98761.375402934703743
98755.70711468133959
98753.191512921417598
98753.905052056506975
98757.462317991943564
98763.143540733362897
98513.45779030158883
98526.707907390329638
98542.307765499441302
98557.56144855178718
98567.547700604744023
98569.010565072807367
98564.302192929841112
98560.587544863577932
98564.742075861242483
98578.362183215242112
98596.74942856853886
98612.834802874815068
98623.044325809212751
98629.850217436396633
98638.497612326886156
98652.291203990200302
98670.467923913078266
98689.17386963586614
98704.34593391798262
98713.940499155156431
98718.142134797657491
98718.143431654927554
98715.45142152858898
98711.999508852590225
98710.03589005334652
98711.23389196813514
98716.029143677835236
98723.531888110665022
98732.105316074666916
98740.269896452387911
98913.142165970188216
98900.487225827251677
98886.779429702204652
98873.214146620157408
98860.47556520573562
98848.78713258652715
98837.883885398914572
98827.380026797065511
98817.062272760260385
98807.013953047266114
98797.57576991955284
98789.259151787977316
98782.664214452641318
98778.295655472407816
98776.658241607903619
98777.791176426952006
98781.620570668092114
98787.534173062784248
98528.332113427648437
98534.43804129199998
98547.187094092019834
98562.576186785590835
98574.314587686589221
98578.337952107860474
98576.135347935967729
98573.895775476936251
98577.842607864804449
98590.493961673884769
98610.453029843469267
98634.138518040155759
98658.358936161559541
98681.092766310670413
98700.571078338718507
98715.381800137853133
98725.248617199540604
98730.966509168007178
98733.963536827286589
98735.573409782809904
98736.286003354063723
98735.848771123593906
98734.260496529794182
98732.449389410452568
98732.039118372675148
98734.4642373816896
98740.207951015690924
98748.615000534642604
98898.034042961749947
98887.117027611893718
98876.6032860102423
98867.155603243270889
98858.921363749002921
98851.644436385962763
98844.865946375663043
98838.146197926602326
98831.231993998619146
98824.274105157761369
98817.687861184473149
98811.967569274274865
98807.594532853850978
98805.004680630139774
98804.472498026239919
98805.992059893396799
98809.529353418954997
98814.602508187730564
98524.282462876697537
98535.353364603681257
98555.869716883811634
98577.204013729540748
98590.271288796531735
98591.92876808840083
98587.130764057554188
98585.738479069652385
98596.613359771843534
98622.591855623832089
98659.502811566373566
98698.421410868002567
98730.04289476966369
98748.73314983403543
98753.592362422525184
98748.254076933619217
98739.550584725831868
98734.080480863063713
98734.811771503242198
98740.161842264380539
98746.11043477478961
98749.331079056224553
98748.994015270363889
98746.641860799078131
98744.993766375686391
98746.55432948518137
98752.106160933341016
98867.133243881355156
98862.897579973505344
98859.966441805605427
98857.82613375922665
98855.845993908005767
98853.510537099879002
98850.548143586944207
98846.954834965697955
98842.960900473481161
98839.064290546361008
98835.874344036274124
98833.774482332257321
98833.058491341216723
98833.845251084989286
98835.858134080233867
98838.666795224533416
98841.793402752591646
98523.614172377157956
98522.933760710613569
98534.605818289448507
98556.82812316523632
98582.144944312720327
98601.387348648218904
98609.666952572646551
98609.7431761315529
98610.626248257380212
98622.207157142649521
98649.626342941977782
98689.83670971027459
98732.36765185969125
98764.441637186275329
98777.30520160406013
98770.411573047444108
98751.122222540405346
98730.396513842890272
98717.184731960587669
98714.860351899682428
98721.027860099158715
98730.080631631659344
98736.840153796525556
98739.144456718742731
98738.171577372660977
98736.887075444610673
98737.971207031238009
98850.717524256368051
98853.403468036238337
98856.188991266477387
98858.394306514339405
98859.624963788621244
98859.784917941826279
98859.062706840777537
98857.903759833949152
98856.795814708442776
98856.200282118137693
98856.460341736717965
98857.597761552897282
98859.391579584611463
98861.304076487911516
98862.766062283219071
98863.350195337319747
98525.697961562298588
98530.128171927688527
98545.862989926812588
98569.201047385678976
98593.574245122028515
98613.135748668035376
98625.434524312382564
98632.354270911193453
98639.299373462883523
98652.626956715612323
98676.17655672658293
98708.357865763944574
98741.845255079679191
98766.601258359311032
98774.653025673149386
98764.395215998374624
98741.665809106343659
98716.55157314655662
98698.001857545794337
98689.891335978769348
98690.538767655481934
98695.291664750562632
98700.040917085643741
98703.271873313235119
98705.751319398274063
98708.940196914976696
98713.679540312878089
98719.726053119782591
98846.499270658634487
98850.613513807911659
98854.118156165088294
98856.901174588027061
98859.116571332488093
98861.020089039317099
98862.891091579382191
98864.957402854590327
98867.309498880465981
98869.984959108871408
98872.694578702328727
98874.94578955466568
98876.292404014835483
98876.36552069040772
98874.819076194049558
98540.870981227883021
98559.811017857515253
98583.018453999218764
98605.312595097653684
98623.845187899889424
98638.357492484545219
98650.293968724101433
98661.836792907692143
98675.315242284152191
98692.415331002601306
98713.008936522659496
98733.893864784753532
98749.191437831861549
98753.272138588392409
98744.205472279150854
98725.206441487549455
98703.001400655470206
98684.119438318506582
98671.784364850318525
98665.514580175411538
98663.090671098660096
98662.954647991689853
98665.068201322239474
98669.930812973689171
98677.13239420564787
98685.089773499334115
98692.33748581763939
98844.216604001194355
98847.101734379742993
98849.902897868785658
98852.988699309178628
98856.60841927745787
98860.87079619045835
98865.648723944701487
98870.649135984582244
98875.435972505772952
98879.487305646631285
98882.307411252055317
98883.418988475241349
98882.572708779815002
98879.763854225209798
98574.233043518310296
98596.168911726010265
98616.067299377173185
98633.346974681102438
98649.112848393953755
98664.049600749684032
98677.502145610182197
98688.527097926184069
98697.356775883687078
98705.241395869277767
98712.594193604425527
98717.696383124843123
98717.728893540799618
98711.120421161918784
98698.92327643657336
98684.130220237595495
98669.720849370802171
98657.074608137671021
98646.247319175352459
98637.444149525923422
98632.064528367467574
98631.869517737563001
98637.084202293874114
98645.551896387376473
98653.876392618825776
98659.990334849819192
98837.375855936916196
98839.426891080074711
98842.731046865155804
98847.588795394243789
98853.833876131189754
98860.994121155410539
98868.411814311257331
98875.216112956259167
98880.644987314924947
98884.106743769050809
98885.218509223748697
98884.00399578383076
98880.673152928502532
98606.90265195563552
98624.341443066601641
98640.179489343136083
98655.880225104338024
98671.091166309037362
98683.24688582654926
98689.775351050542668
98690.349966107489308
98687.166016566756298
98682.969686722775805
98679.122260725052911
98675.251425943060894
98670.496452414998203
98664.734836171599454
98658.458271326380782
98651.665964262647321
98643.374363519324106
98632.944437366692
98621.80052133310528
98613.330293376668124
98610.593712186222547
98613.718348026261083
98619.575350611514295
98624.168694013598724
98625.994968271144899
98827.055061712293536
98830.522901612901478
98836.358892707561608
98844.205952035496011
98853.303734649249236
98862.610304730551434
98871.02563831966836
98877.612655191769591
98881.723960978255491
98883.168335839101928
98882.172370399173815
98879.234861119373818
98629.503911004008842
98643.19981633037969
98657.038879831758095
98669.879104804422241
98678.183876142735244
98678.972861864836887
98672.172437754663406
98660.748406005528523
98648.632289244647836
98638.566106778889662
98631.484643536066869
98627.378668184843264
98626.208779996537487
98627.365887812164146
98629.022994638246018
98628.368146034757956
98623.440687359005096
98615.105957633510116
98606.747353749888134
98601.760335630257032
98600.582268779122387
98600.249789052759297
98597.618006018194137
98592.896167386192246
98642.207131760122138
98652.370014798812917
98660.441164097588626
98663.11415168386884
98657.773914153134683
98645.01803908443253
98628.46213400248962
98612.34022009227192
98599.303846540278755
98590.393024880133453
98586.187482676876243
98587.373287022812292
98593.841525103809545
98603.380996765947202
98611.911280865824665
98615.692584366173833
98613.742503121524351
98608.109570688422536
98601.432651475333842
98594.436814100219635
98585.67434413927549
98574.281028830984724
98562.746515890830779
98643.921109186587273
98639.977216064347886
98628.850416463668807
98611.9695679959259
98593.238133436403587
98576.4391844884085
98563.385099043996888
98554.383842159746564
98550.054947552722297
98551.983212344246567
98561.449950484340661
98577.072509954858106
98594.327920963085489
98607.644465625387966
98613.479795975188608
98611.531888595898636
98603.19995177409146
98589.8506590777979
98572.535730253017391
98553.392527060103021
98536.986052685126197
98557.976241492651752
98543.146854894162971
98532.221318155876361
98524.429294185465551
98520.261932091307244
98522.227280916107702
98533.07452390594699
98552.633188957493985
98576.535606123434263
98597.848751286859624
98610.455268326331861
98611.42139426455833
98601.071388931275578
98581.968935020384379
98557.990926980040967
98534.062573194663855
98515.98377719191194
98496.96169845345139
98498.641007485857699
98509.727543095694273
98531.271089923728141
98559.268866945669288
98585.761065809550928
98602.500477911933558
98604.53227685346792
98591.741996933240443
98568.224854478074121
98540.459088967079879
98515.370880770497024
98499.007149132536142
98480.849844674463384
98491.351454337316682
98513.059162483215914
98542.327493394404883
98570.621035948366625
98588.429138869643793
98589.753828472836176
98574.664476535253925
98548.709173225652194
98520.194532903435174
98497.055979067910812
98484.786269376403652
98453.818827095426968
98446.177494090603432
98442.636661221680697
98437.696382340873242
98427.476462673483184
98412.899854704228346
98398.816008957408485
98389.817361944893491
98385.623054737036
98381.17475936516712
98370.444786706037121
98350.480286275313119
98322.316458922272432
98289.23002590338001
98255.31081066322804
98225.357072045982932
98203.948857717681676
98193.147162875029608
98191.399125488067511
98195.143069419864332
98469.498553472920321
98453.261092710177763
98445.477738662724732
98441.458394775225315
98434.542808754908037
98421.361900614443584
98404.773495251763961
98391.10653565217217
98384.666076533743762
98383.92590454290621
98382.44401823215594
98373.31481423517107
98353.319404588066391
98323.858997747811372
98288.916704797244165
98253.66461646319658
98223.416068573045777
98202.395191193762003
98191.739767855717218
98189.38276026827225
98192.223651355598122
98198.087730233775801
98530.404490378903574
98499.131410648609744
98470.499481880688109
98452.191814616540796
98444.467734570440371
98440.332592965190997
98431.752807665005093
98415.88455281748611
98397.391698695253581
98384.049949360836763
98380.122020118302316
98382.661236778149032
98383.94339631695766
98376.270082656294107
98356.144218470944907
98325.249941235175356
98288.4537884714955
98251.981666915322421
98221.642430415027775
98201.167101795959752
98190.725598884848296
98187.844272331276443
98189.832178533208207
98195.207473882430349
98203.45655149963568
98213.391878405192983
98569.95750705015962
98541.67646694535506
98504.119451948921778
98470.809560652938671
98450.792933402975905
98443.332260878261877
98439.405123632168397
98429.449414939706912
98411.158924030896742
98390.877358331534197
98377.838715677833534
98376.17771493755572
98381.798836511181435
98385.644256630344898
98379.173779283475596
98358.76601851041778
98326.4308140858775
98287.876065394229954
98250.296763980135438
98219.976444214931689
98200.107412968762219
98189.928572009928757
98186.628765042391024
98187.850883740291465
98192.831675491383066
98201.206709880658309
98211.385583364826743
98220.360808397905203
98594.44493004308606
98583.948997542524012
98551.180750660059857
98507.991745820283541
98470.528191742385388
98449.134550579226925
98442.169764177902834
98438.743918915846734
98427.748488104247372
98407.247338293702342
98385.313006382610183
98372.478705018671462
98372.859023410506779
98381.310748083924409
98387.394824865317787
98381.952361742325593
98361.21422752107901
98327.436840737311286
98287.20344950062281
98248.62685873938608
98218.37085110390035
98199.113051316075143
98189.253218076104531
98185.631625084730331
98186.211955040431349
98190.865218847917276
98199.395202099331073
98209.871923602288007
98218.804771362294559
98223.063938197228708
98591.763811718919897
98606.572011935990304
98595.676457577239489
98558.878515292934026
98510.699972547765356
98469.712234444974456
98447.284655960611417
98441.090717168874107
98438.387317013737629
98426.615939908806467
98404.143262818717631
98380.680749796199962
98367.943834403573419
98370.101988844908192
98381.058550276546157
98389.153653958856012
98384.576155689850566
98363.427737362624612
98328.254243234274327
98286.457629924610956
98246.985457612274331
98216.813996230295743
98198.140072460606461
98188.65206809969095
98184.781971015225281
98184.834368169234949
98189.214804575633025
98197.949502841598587
98208.754313277429901
98217.724290757760173
98221.679884772078367
98219.760328203861718
98598.755353592758183
98616.233919727019384
98604.897458684034063
98564.711782022815896
98512.374285810597939
98468.611301987184561
98445.472407476700027
98440.188743933817022
98438.271058440222987
98425.939115618442884
98401.823136778373737
98377.031410094394232
98364.312564330044552
98367.923295317363227
98380.996293577001779
98390.80059122943203
98386.863764761161292
98365.26374612590007
98328.883099493759801
98285.742201102155377
98245.496171783204773
98215.399924374680268
98197.244479587418027
98188.110550204859464
98184.062131991959177
98183.687070353582385
98187.875496693537571
98196.830697015670012
98207.97992922271078
98217.016562747841817
98220.747745414962992
98218.639291021434474
98212.190940831656917
98670.29602580118808
98696.939834037781111
98718.350291380120325
98732.350413240434136
98744.597296075269696
98770.04297205041803
98603.826316685852362
98623.276879476456088
98611.436498377894168
98568.680676956268144
98513.212417241680669
98467.480005474339123
98443.97587186016608
98439.551764681833447
98438.35004773476976
98425.625781887283665
98400.267766790653695
98374.447121879580664
98361.719663537980523
98366.394801476737484
98381.041314960457385
98392.124290790001396
98388.630547815962927
98366.648280909881578
98329.327958108464372
98285.14907324455271
98244.318455797430943
98214.278353480287478
98196.5345192712266
98187.675454564508982
98183.513319459467311
98182.829719167901203
98186.89174289040966
98196.039973171675229
98207.485650594651815
98216.585913645947585
98220.156091860946617
98217.870804609192419
98211.649514096963685
98203.814797458311659
98636.637993233365705
98671.342687292257324
98697.71502682735445
98718.89461051618855
98732.07092698996712
98742.87541033377056
98767.968363281601341
98606.62288565831841
98627.08216075222299
98614.760477568153874
98570.581011364018195
98513.383200261698221
98466.62447274888109
98443.084651746219606
98439.225202021581936
98438.479650035034865
98425.494360376294935
98399.429543118079891
98373.027043851994677
98360.328474107460352
98365.61640133446781
98381.15200126284617
98392.938161004203721
98389.632207819944597
98367.380371456209105
98329.502158029470593
98284.722307472678949
98243.574605924673961
98213.581781198678073
98196.087738663292839
98187.388262665233924
98183.174365498387488
98182.335353887348901
98186.342459710867843
98195.630917200847762
98207.269567685274524
98216.420613096808665
98219.879822535280255
98217.520350659455289
98211.407217117986875
98203.777078977786005
98197.11112390224298
98713.03156863557524
98722.771768517108285
98726.74213104743103
98724.120352704499965
98715.040565179588157
98700.381456021117629
98681.61101257201517
98660.594480564745027
98639.29127076761506
98619.663098173055914
98602.771607712536934
98410.485370993250399
98415.003858303956804
98416.150636536636739
98418.506102118801209
98424.964898446211009
98436.090097391672316
98450.918745561837568
98468.468154512840556
98488.007987604811206
98508.434880836561206
98527.783590093808016
98544.429137307350175
98557.531934001657646
98567.051260063264635
98572.754380843194667
98573.761494809747091
98569.828492480999557
98563.422427259618416
98559.930095247094869
98564.859754156583222
98579.839590468051028
98600.707592365739401
98619.115842418250395
98628.003378156470717
98626.567345663148444
98620.767766294913599
98619.478190860507311
98628.456473321231897
98646.39755516940204
98666.045605445979163
98678.84972556019784
98680.285913439831347
98672.400194539004588
98661.345354842254892
98652.922044577644556
98649.553591112737195
98694.437401205213973
98677.583772671176121
98665.344995693856617
98658.726019905981957
98658.174270600575255
98663.581877287637326
98674.187529003116651
98688.486434616119368
98704.523328006936936
98720.031782264864887
98732.718202736170497
98740.677695909194881
98742.66489462699974
98738.124402715548058
98727.382169534597779
98711.595623161367257
98692.488650480983779
98672.008697906479938
98651.954248584705056
98633.993641630746424
98618.919898050371557
98396.989152405309142
98406.80203209805768
98414.790691495058127
98423.884354714959045
98434.799954675778281
98446.545029822562356
98458.149248232628452
98469.837708957944415
98482.663801908871392
98497.166061308438657
98512.522586663471884
98527.162541409416008
98539.843136832569144
98549.613430677636643
98555.582878517889185
98557.024632141707116
98554.713529852393549
98552.511685635516187
98556.655148937396007
98572.324225152595318
98599.659753525425913
98631.843077327794163
98657.964012550670304
98669.784191069498775
98666.606288672322989
98655.785876361172996
98648.016858017857885
98650.453964445972815
98662.648518871734268
98677.712414760841057
98687.24416769266827
98686.770532890383038
98677.960422985808691
98666.642507025258965
98658.764425704168389
98657.572778180954629
98724.409323395710089
98707.334329359262483
98694.706157620166778
98687.711088263808051
98686.800371623714454
98691.670529967464972
98701.306957040156703
98714.052754733318579
98727.853804033569759
98740.442093270932673
98749.780644798403955
98754.393794423100189
98753.327235297881998
98746.603852812462719
98734.812256021730718
98719.166437083957135
98701.379141256387811
98683.273196980415378
98666.225830433366355
98651.462746781398891
98639.31153147869918
98412.224291542574065
98426.465130150900222
98440.435712306003552
98453.328294588485733
98463.498342335005873
98470.717144013062352
98476.512040561283357
98482.974574656022014
98491.356175031280145
98501.596721809983137
98512.69575528203859
98523.617361285185325
98533.297420004470041
98540.28675759077305
98543.3355852382374
98543.500074353432865
98545.23079396096
98555.269074090465438
98579.073220508420491
98616.151320456410758
98657.995482954269391
98691.989277003507596
98708.498903848158079
98705.953129204484867
98691.893312704312848
98677.417203918274026
98670.419452768546762
98672.589211389349657
98679.971368976795929
98686.329428835975705
98687.089353830830078
98682.0386858000129
98675.058646767254686
98671.081902758858632
98736.680711896435241
98725.540202794916695
98719.589423298981274
98719.11342929629609
98723.526271477472619
98731.558627857564716
98741.492389185063075
98751.324628120462876
98759.223946565994993
98763.739691359092831
98763.857972443758626
98759.413956237098319
98750.718085055268602
98738.689389415550977
98724.552893983796821
98709.730046254830086
98695.580694237156422
98683.005433944243123
98672.556714083024417
98664.178027930116514
98431.271337332276744
98448.712508648110088
98463.600078437273623
98475.707906509895111
98483.925575331842992
98488.27740069765423
98490.592033784734667
98492.818564568195143
98495.934194244793616
98500.154047096220893
98505.61386707604106
98512.575695977706346
98520.671410313123488
98528.481886692054104
98534.195828098163474
98537.895035910099978
98543.425484505889472
98557.386581624930841
98585.378656179324025
98627.052557814648026
98674.204592412948841
98714.010053098900244
98735.741988082692842
98736.530706239238498
98721.747355639774469
98700.79225830239011
98682.905178214292391
98673.355282289063325
98672.137093680925318
98675.975645745318616
98681.224723263294436
98685.804979374704999
98689.491900515567977
98693.228790525507065
98766.517471602448495
98758.548238811534247
98754.88169416396704
98755.289025031524943
98758.932159615244018
98764.410991439959616
98770.123458346177358
98774.593466430320404
98776.579969121448812
98775.332804213700001
98770.697350833957898
98763.020500229904428
98753.000175158304046
98741.7441552682576
98730.289088136953069
98719.563187054445734
98710.245643018119154
98702.720404728795984
98697.209670459458721
98693.118840044626268
98477.889699757564813
98489.997317279368872
98498.78991126116307
98505.541283553888206
98510.359427218470955
98513.407690212465241
98514.636142942879815
98513.775289187236922
98511.378056685862248
98509.216890293319011
98509.550711998876068
98513.805457245267462
98521.360518520756159
98530.11971248521877
98538.625342608633218
98548.684684472143999
98565.326389747206122
98593.362564319832018
98633.168565239117015
98678.781467974476982
98719.656624244424165
98745.468330847623292
98750.840646334574558
98737.393750636576442
98712.515241127475747
98685.739814735614345
98665.256970559683396
98656.040288632953889
98659.491063818481052
98673.5693530588469
98692.856522997593856
98710.885929857206065
98795.516889840408112
98794.385774399517686
98795.408061878115404
98797.606966444625868
98799.80376989688375
98800.728054797975346
98799.409963627636898
98795.477513378835283
98788.895036489513586
98780.007831722323317
98769.698485072163749
98759.08670449978672
98749.017088971173507
98740.234938272566069