/*--------------------------------*- C++ -*----------------------------------*\
  =========                 |
  \\      /  F ield         | OpenFOAM: The Open Source CFD Toolbox
   \\    /   O peration     | Website:  https://openfoam.org
    \\  /    A nd           | Version:  12
     \\/     M anipulation  |
\*---------------------------------------------------------------------------*/
FoamFile
{
    format      ascii;
    class       volScalarField;
    location    "0.0051";
    object      T;
}
// * * * * * * * * * * * * * * * * * * * * * * * * * * * * * * * * * * * * * //

dimensions      [0 0 0 1 0 0 0];

internalField   nonuniform List<scalar> 
106891
(
298.85699426978879956
298.85428603561916816
298.85042033035807663
298.84544387345749783
298.84033120787967164
298.83435857771877409
298.82957086876189123
298.82394728887823021
298.82004722794920326
298.81550011826044511
298.81125015033398995
298.62504230376140413
298.61918782487390445
298.61338181948042347
298.61157850384086032
298.61731581406229452
298.63167432396261347
298.65290822314972274
298.67742863418129673
298.70150444481225804
298.72231314371026656
298.73826462881163479
298.74891536791858471
298.75475513424720475
298.75712045033952791
298.75811863338884677
298.75993300727913038
298.76344360133049349
298.76749199248035893
298.76983389731941543
298.76947837932874563
298.76818918307782269
298.76988185061065906
298.77806247199146128
298.7933462596745926
298.81293745188713729
298.83229406693578767
298.84803495284359087
298.85876527136309733
298.86362195270010034
298.86110312113868304
298.84965152881096628
298.82970892772237903
298.80499548669865817
298.78211495082570082
298.76745286845721239
298.76422475625463449
298.77112378372567036
298.78431596879397603
298.876967555652584
298.88179538087069886
298.8857997613413886
298.88899291753563148
298.89134864700378102
298.89282678741591326
298.89320052351479262
298.89248841786081812
298.89066648201747967
298.8875863073727146
298.8830104530452445
298.87723913750215843
298.87062278779217195
298.86425392747446494
298.85728890442743477
298.85177735206752914
298.84596169067469873
298.84224918659282366
298.83826064982378057
298.83472903302617851
298.61032180634771294
298.60480915772251365
298.60424588148691782
298.61286915107126561
298.63170771666290193
298.65779947095904845
298.68564599022857919
298.71002310889241471
298.72810669085930613
298.73981793196827539
298.74668400513223787
298.75061814604549681
298.75339132977666168
298.75652538278853854
298.76112013133757728
298.7669754919627394
298.77217583659620459
298.77439221727530594
298.77299311556691919
298.77033328507570786
298.7705583906253537
298.77741734280260744
298.79187488402089912
298.81160704151915297
298.83281140183066782
298.85168270034870375
298.86537203630291515
298.87195914308256306
298.86962210374127835
298.85729146629159914
298.83626329759709961
298.81125970994867203
298.78913121661810237
298.7757332241233712
298.77366733776614183
298.78113726881161938
298.91213925829225673
298.91900300667504098
298.92412189913704879
298.9273994612647698
298.92887988841243896
298.92880207867796116
298.92721938308096696
298.92417303520443284
298.91971759410813547
298.91386926909819977
298.906842983202921
298.89914085701360591
298.89055756527835683
298.88282894765245601
298.87517793404526856
298.86969455702120513
298.86443875909310464
298.86163605088398754
298.85890362927113983
298.85667533806304164
298.60581563795216198
298.60291029492969983
298.60570539078759111
298.61850927778436926
298.64183714385103485
298.67133464410989063
298.69990879670672257
298.72142717940607781
298.73391093941745567
298.73964666176414084
298.74264118048165528
298.74618872626012944
298.75187209913889319
298.75945739853602845
298.76769232154117617
298.77486063152190354
298.77929850972077475
298.77989746544341187
298.77736739111605857
298.77433955424606893
298.77472428271602212
298.78151375823773606
298.79521774137742796
298.81408189376293194
298.83477274606360652
298.85360513435102803
298.86771365001033018
298.87481304358010448
298.87287779828369594
298.861141650753666
298.84155303793198755
298.81906121983649882
298.8001324908638594
298.7899415190403829
298.79045069544542912
298.79934225981094187
298.96103988752543046
298.96562775568264669
298.96724962235714429
298.96623309425962134
298.96314499501482942
298.9583215458947052
298.95201102826393935
298.94441435350643133
298.93566468601892439
298.92593634037933725
298.91566655574911238
298.90515325658680013
298.89583450294418299
298.8874731224150878
298.88211246239978891
298.87782513140723495
298.87654184010938252
298.87574406091431456
298.87551864161844151
298.61133769124819537
298.61916515276965356
298.63656584679443995
298.66304385963167078
298.69330445822163256
298.71945019828331169
298.73545331004083891
298.74071196008037532
298.73977066818576986
298.73924700891416251
298.74391745834697076
298.75445993347307194
298.76783096124069061
298.77951201393688052
298.78628549611693188
298.78762646316283735
298.7853798604351141
298.78224215767374972
298.78085831728122912
298.78365500216943929
298.79213550018783963
298.80585120402497523
298.82283750342668327
298.84035541233345157
298.85577077666272316
298.86697744059767956
298.87223068247300262
298.8704201700976455
298.86163488742278105
298.84765957131787673
298.832078284679028
298.81954758937831684
298.81416635712923835
298.81725402027564087
298.99777651823336555
299.00448665784506375
299.00677638609943187
299.00511215711702562
299.00025488924615047
298.99314187376501195
298.98446735298819021
298.97472109919192462
298.96415673395938484
298.95290151224276087
298.94112445571636272
298.92924146473103519
298.91736820489052207
298.90709988424714538
298.8981387656467632
298.89261867204982082
298.88892347299872654
298.8887463251072063
298.88969351237545879
298.89159156578620014
298.62828712836238765
298.64101504590405511
298.66124534688253789
298.68781506908766232
298.71565176843125755
298.73752138906434084
298.74810206620128383
298.74734252750431551
298.7411125917441268
298.73810697712622186
298.74447995321531835
298.75997189201615356
298.77837585073382343
298.79198537897099186
298.79693040196474385
298.79479012320661013
298.79040399090092706
298.78841849118674645
298.79150853548850364
298.79983522465477108
298.81190430337812813
298.82600165402050152
298.83999863968011823
298.85195453574277735
298.86084917597406729
298.86627181001222198
298.86821043971150402
298.86718069609702297
298.86385149023215035
298.85865744459164262
298.85269102258178009
298.84826621576161187
298.84787964846515251
299.04194746685993778
299.04044758433349216
299.03452789127123879
299.02543602596006167
299.01455332077716776
299.00285289509406539
298.99084972854899434
298.97865191514983962
298.96628970625533839
298.95380100679625457
298.94150102103435529
298.92951389632992232
298.91929033381535419
298.91041629770256804
298.90503477583769154
298.9017936372935651
298.90230661212888208
298.90450490902463798
298.908085538092962
298.67045230200454853
298.68838192394417774
298.70982020401726231
298.73172173403673924
298.74903328471896202
298.75673800832242932
298.75383657759158496
298.74576751558419119
298.74165987738967942
298.74818614491238122
298.76485180648916185
298.78451924783371396
298.79867975407000813
298.80326666272191005
298.80088024137461389
298.79830575668546544
298.80144487958756372
298.81181689568268212
298.82678647783188808
298.84226281247140378
298.85530598431552107
298.86456511425564031
298.86983903916484451
298.87163361516547866
298.87108682262447701
298.87006955017818655
298.87028407468437763
298.87215350128366254
298.87500600251541982
298.87796822355454651
298.88083052981079391
298.88429199515638857
299.06478257496343076
299.05886778431511175
299.04901131131452985
299.03682187067289533
299.02379845075165576
299.01088872571574484
298.99857248921273367
298.98678674194064797
298.97531297263128636
298.96400612022893029
298.95305021115291311
298.94239184200387172
298.9333200961252146
298.9254882030392082
298.92077538406448411
298.91807168351880364
298.91899607128038951
298.92197827860866255
298.92670460212980288
298.71012441984760244
298.72194778276923444
298.73576183933471384
298.74921443939985011
298.75799515397500272
298.75920677735081199
298.75486623778834883
298.75130721326877392
298.75471039188573741
298.76663880421386921
298.78300863757760908
298.79745377825247488
298.8065300594303153
298.8121890810879222
298.81907497030795184
298.83035334270448402
298.84570217460151298
298.86199182700545407
298.87568983489541097
298.88482337551232604
298.88926416006751197
298.88978972499972997
298.88756062025561278
298.88427253294719321
298.88205208554762748
298.88259483373303738
298.88646069968285701
298.89292688676351872
298.90048797284458715
298.90771611620340309
299.05902284486535336
299.04798551344231328
299.03593090871822824
299.02398345959704784
299.0127109387622113
299.0023975504406053
298.99279036439804713
298.98358379964969345
298.97453513614709664
298.96583099655254046
298.95740471139123429
298.95034703343827687
298.94422488546553041
298.94062106299600146
298.93875636962349063
298.93993524121697192
298.94316561517081254
298.9479861678705106
298.72412142587813833
298.72951890603383163
298.74056191292868334
298.7538345417459027
298.76392603435857609
298.76733730674885692
298.76537090701862098
298.76342831118984122
298.76694968256424545
298.77808771202285243
298.79553085623501829
298.81606748958677144
298.83686979928774008
298.85625492402363079
298.87284216603808318
298.88553880378225358
298.89417546245630319
298.89942893884500563
298.90244256023055414
298.90424299116170914
298.90514711125678105
298.90487517004402207
298.90342175503303679
298.9016428658144946
298.90102305909766756
298.90287654720481214
298.90764611128105344
298.91475594405153515
299.04588720844350291
299.03626221808309538
299.02690082637218438
299.01847743418147729
299.01109456660725527
299.0046275234031441
298.99863791321411099
298.99279015036751161
298.98677254328868003
298.98084711852663986
298.97501062265473593
298.97026607148615085
298.96618542074878633
298.96411536374432671
298.96331474713520038
298.9647264528210826
298.96771368153429194
298.97171551708720472
298.72067964546323537
298.73032866085333126
298.74818115754931114
298.7668395890912052
298.77839495165596873
298.78000869680204232
298.77586020511125753
298.77445555461002868
298.78353931468410565
298.80569653953193665
298.83743307989982441
298.87108478009389501
298.89856437417239476
298.91492052586659156
298.91930058630197209
298.9147661419654014
298.90719929919094966
298.90238015250554326
298.90300209467108061
298.90777708264937473
298.91320688895598323
298.91631147533951207
298.91625335243253403
298.91427546859779341
298.91268939739876487
298.91369144279792636
298.91806483657137505
299.01860177370730298
299.01469530949304954
299.0119564835272854
299.00990801821973264
299.00809846909146472
299.00602164737961175
299.00351281536222814
299.00044455161759061
298.99717605118087249
298.99378254757067452
298.99127867145938353
298.98928836131949538
298.98883777279735341
298.98930024017920459
298.99106487706308144
298.99345757058375739
298.99573417735479097
298.72016746486860939
298.71948470706661283
298.72957558077780504
298.74893420425058821
298.77111537316727663
298.78809022561381425
298.79545245743179294
298.79542781646858884
298.79577246722811878
298.80516316627671358
298.82827507177410098
298.86271513814790524
298.89955507240665611
298.92768926277966557
298.939344456853064
298.9338022670693249
298.91727894800976628
298.89926749065728018
298.88765743912142625
298.88554519486041272
298.89097495231396806
298.8990994993234267
298.90532891714008201
298.90762941207339054
298.90688974391929378
298.90563374865752166
298.90624555578438049
299.00382130664985425
299.00605327260655031
299.00836742801038781
299.01026711833929994
299.01133544076776616
299.01159220960710172
299.01105006389900609
299.01028264017958236
299.00938154714685879
299.0091431917971363
299.00932172287815547
299.01048571522676411
299.01197835630972577
299.01362269082397916
299.01489350366108511
299.01497899403074143
298.72182477589012706
298.72558672399969737
298.7392898813463944
298.75974877879127689
298.78118248771050958
298.79838774931226908
298.80912406154510563
298.81496368312355116
298.82059625444861695
298.83161415518952708
298.85148957471193398
298.87900741951432337
298.90791972739998528
298.92953736292957956
298.93686461734921522
298.92836308359801478
298.90896212360689788
298.88736258985869654
298.87136884821183003
298.86440998046936102
298.86506215428153155
298.86926524163573049
298.87339413797258203
298.87609411235962398
298.87804458862706269
298.88057102170938606
298.88447279758992181
298.88959514127719785
298.99997354898596313
299.0035469215727062
299.00664524840499325
299.00908587791150239
299.01112857566033654
299.01283455162678138
299.01465906998282662
299.01650617941658084
299.01879362975608956
299.02115037581859269
299.02368487882614545
299.0257121736941599
299.02685619670216965
299.02698770835866071
299.02530093611858319
298.73400182539086245
298.75061127904211844
298.77105963971933988
298.79070289399453486
298.80695108475191546
298.81955263024326541
298.82981195275482378
298.8396909044213885
298.85125453829544995
298.86597108703796266
298.88372284325691908
298.90175358932543759
298.91499815333907009
298.91859251252122931
298.91086051443159022
298.8945686552646066
298.87551991325233303
298.85934408094459513
298.84879183736785535
298.84338539459048434
298.84114831812831881
298.8407277162289688
298.84216143914733266
298.84600696608771386
298.85203227725247643
298.85890781087209689
298.86532075814335485
298.99812965453196512
299.00075752022200959
299.00322659999460484
299.00600706919863114
299.00914429172382825
299.012988592841225
299.01716093066363555
299.02168817199770956
299.02592460231483074
299.02960983200887313
299.03222209655314145
299.03316869514679865
299.03256780147734162
299.02988298506227238
298.76306972142407403
298.78246040674440565
298.79997146277469255
298.81502406957667972
298.82864573777914075
298.84158925182100575
298.85341071328122098
298.86328396854071343
298.87128065174186986
298.87834210941974789
298.88475853665806881
298.88906839374044466
298.88891782377089612
298.8830468170090171
298.87243919043862661
298.85969424864919119
298.84732285244206196
298.83640044206680386
298.82685648841345483
298.81881944339880874
298.81356778884293135
298.81280468489421764
298.81692991816822769
298.82419366789230253
298.83161364871102705
298.83723621552331906
298.99246108157706203
298.9942932870839627
298.99724713211975313
299.00140664573075355
299.00690903347441463
299.01310520269925064
299.01966960749217606
299.02568004978837735
299.03053411460041389
299.03377942432581449
299.03473212012784188
299.03386928464067296
299.03083228318240572
298.79142848186523906
298.80672647245427243
298.82042222232479389
298.83394038031531181
298.84720351369531954
298.85811994960977245
298.86440574939302905
298.86557227919075785
298.86329521822580091
298.85982788824497902
298.85636592932291933
298.85271432941561898
298.84828373589402872
298.84308045995840075
298.83755398118296398
298.83163581072193438
298.82434017300317919
298.81497540404217261
298.80473626198329384
298.7966784284870414
298.79370187370756184
298.7961539775922688
298.8014029614176934
298.8058510951284461
298.80792810451379182
298.98358024493558105
298.98666871035368331
298.99164881375725145
298.99850076315834713
299.00635104062808978
299.01450757133943625
299.02194004089244572
299.0277761649039121
299.03163890531703828
299.03288644164808829
299.03226637793170539
299.0296564163377866
298.81131709573253374
298.82308979426198903
298.83493797798934111
298.84611822778555279
298.85369401308145143
298.85501315795767141
298.84980562599071163
298.84041782543789623
298.83013660607775819
298.82134622736157326
298.81496480969411778
298.81111029103243482
298.80985137141152563
298.8106957191470201
298.81201182344545941
298.81125145093341189
298.80659408225147899
298.79876147856776925
298.79081289667726651
298.78594156808043181
298.78477015833703945
298.78478976851363313
298.78308487511458225
298.77952256769611949
298.82207915936652398
298.83080807020701286
298.83783498683862945
298.84039996607219791
298.83618093543151417
298.82554049116220085
298.81147397585664294
298.79760316774218154
298.78625545367657423
298.77839210122715485
298.77457891106365651
298.77546300541104074
298.78097932927397551
298.78919521956021299
298.79649533281417462
298.79953574156013474
298.79742074117132233
298.79202062376219828
298.78583525356305017
298.77969459460075541
298.77238429497856487
298.76297444727146058
298.75334622354762359
298.82434536110292811
298.8209820498769318
298.81139362058951292
298.79674867793113435
298.78040760448766378
298.7656964695988222
298.75424825677083618
298.74634778460494999
298.74252101188301367
298.74413270033164736
298.75231753442545823
298.76589940494852726
298.78092779311907634
298.79248830146570981
298.79743660495569202
298.79553841866788844
298.78813192661414178
298.77652715774496528
298.76165403462050563
298.74524234844921011
298.73107142491670629
298.74889552449104713
298.7357466185083581
298.72613476039430225
298.71936801726496924
298.71579096212110471
298.71752327554395379
298.72696777669307266
298.74403851239998176
298.76497256556893944
298.78371015718988701
298.79486092239761774
298.79583637322963341
298.78693075073039154
298.7703993236021347
298.74959996451769939
298.72874561575861208
298.71280093053258042
298.6953412660129743
298.69690680200392308
298.70659093994953537
298.72539416784383093
298.74992173099400361
298.77326978788829592
298.78820624943369921
298.7903326156152275
298.7794665264330547
298.75911806583553698
298.73489145045169835
298.71279520361866844
298.69810316966407981
298.68137032698848543
298.69060678310108869
298.70955852738751446
298.73518171888042616
298.76011359763225528
298.77604487513605136
298.77764371166398405
298.76483295260470641
298.74233762496049849
298.71734438804355705
298.69678675934278544
298.68552610832466598
298.60851303747534757
298.53749558008149734
298.48901557125896034
298.45393447491841243
298.4249945920367395
298.39975675058769866
298.37997021832745759
298.36791460493424211
298.36214987288997236
298.35724996124940844
298.34692161789109832
298.32757961689884496
298.29942278308863024
298.26521156179029504
298.2291266081623462
298.19658834024340877
298.17317622489463247
298.16216338119244256
298.16304640781373791
298.17260832702919515
298.75953115538300153
298.641080725336451
298.55693335998000748
298.49873999280686121
298.45591741861193213
298.42068588146975117
298.39119706675438692
298.36964805300112857
298.35771612500957417
298.35304274292121818
298.34949589860349306
298.34048235948085903
298.32228378281519099
298.29499545806612559
298.26111789583973177
298.22479523556654613
298.19121110761727778
298.16552388177524335
298.15074999179017823
298.14697295134385513
298.15256550213399578
298.16550159703456302
299.20059301652662498
298.99982432211811556
298.82972353708612445
298.69710745496695381
298.6003250604439927
298.52991203370459061
298.47456855383063612
298.42727032042165547
298.38803195523854583
298.36060694680895722
298.34681800904104421
298.34300807820471846
298.34160122854632391
298.33482876511266113
298.31818190974712479
298.29147689229199614
298.2575327104946723
298.22105790009283055
298.18742464785032098
298.16125375143639076
298.14475613410047572
298.13790770514094675
298.13990253493670934
298.14991897349074179
298.16669681669350211
298.18730381090176706
299.46640604786284712
299.24549324465408517
299.0411677042801557
298.86830938972781269
298.73532399159859096
298.63996515136670951
298.57110455260152548
298.51596281868523874
298.46771783066969874
298.42756920333113158
298.40038565363022371
298.38788834433728425
298.38557169032407046
298.38500476328977129
298.37804024215216714
298.36041150416167511
298.33245605998541805
298.29778066909710788
298.26177995683667632
298.22989707309835694
298.20582712383310309
298.19052575808086658
298.1834069932937723
298.18397782360483461
298.19234869711078773
298.20788738697086728
298.22777284206154036
298.24721277874488123
299.32137546534960393
299.17782102666410537
299.03731499615258826
298.90974422398659271
298.80746325236140137
298.73706820027518916
298.69422588779099215
298.66622593495208093
298.64006536383635648
298.61113699787210862
298.5844335703127399
298.56809196665591344
298.5653462085801948
298.57149266090476658
298.57695048914683866
298.57291115647228708
298.55517828219137755
298.52505566912208224
298.48814732448863651
298.45199026381459362
298.4233311925615908
298.40560588129386588
298.39830267417625009
298.39904493012863895
298.40579508140012877
298.4175936682274255
298.43303393478009866
298.44910017616160758
298.46166363457354009
298.46752440001534978
299.12788428474743796
299.11904138763617311
299.09339117432909916
299.04930102354342125
298.99830137834118204
298.95587177310960669
298.9315232144890615
298.92296245194683024
298.91881397567561862
298.90784698354184457
298.88841166074035982
298.86899163409731273
298.85992185746374616
298.86486561448612065
298.87825178205719112
298.88940464222889659
298.88925137826441869
298.87409467354763137
298.84610770323706674
298.81189310259139802
298.77949737158974131
298.75528084328209388
298.74140046742496679
298.73594472227529195
298.73571132927492044
298.73898676445725187
298.74590461153781007
298.75640162550979539
298.76854603458644988
298.77905738697586457
298.78530313963483422
298.78665193795467303
299.36203910191079558
299.37809091635261893
299.36989520864523229
299.33697253446013065
299.29347599190828078
299.25737263124369747
299.23929874791872408
299.23709014044396781
299.2382272496570863
299.23052449537618713
299.21242797953050285
299.1934464751555538
299.18478237660946206
299.19039028461139651
299.20451217593370075
299.21613449244887306
299.21610266055387228
299.20087180397973725
299.17272620753709589
299.13841293869057836
299.10622677469382324
299.08257582502972127
299.06922991667607903
299.06379878792807858
299.06284857079828043
299.0650742185805484
299.07123933474014166
299.08160498320336274
299.09400466475102576
299.10467086566865191
299.11070762935474932
299.11153670301752072
299.10838714868259558
300.47208561079378342
300.47056418469065875
300.46405865760851839
300.44954684503386488
300.43212504586944078
300.42606345691001479
299.73472838511401051
299.7540166080644326
299.74633329742147225
299.71137517742511136
299.6646237839800051
299.62577721145481746
299.60612857741404014
299.60334518617816002
299.60375089624295697
299.59422310569021874
299.57338686101479652
299.55172047329324414
299.54132160187111822
299.54639071837721076
299.56075316976898648
299.57251616666184191
299.57165137649599274
299.5542567629144628
299.52279310318056105
299.48468153875376174
299.44913787866386201
299.42306613746103494
299.40803336409919666
299.40102426174496486
299.39813363300828541
299.3980797419509372
299.40197082369093096
299.41029165737757012
299.42077987502352698
299.42936895009876253
299.43311120161655481
299.43159745300539498
299.42653638872678812
299.42009477511999194
300.32230183904857768
300.34326731912619834
300.35727427888360808
300.36755261209702894
300.37154341828875204
300.37344225531768416
300.38731717336617066
300.13397400699238915
300.15294551878196216
300.14337566766943155
300.10540782983093777
300.05516634081914162
300.01338286019870338
299.9917458700334123
299.98762358436277964
299.98671663363239759
299.9753417676756726
299.9524352669095606
299.92900798104591331
299.91748580802936885
299.92177920478093256
299.93512567693977644
299.94517760963907449
299.9419195179414146
299.92199554921973004
299.88831408451903826
299.84840200155144885
299.81136219904004747
299.78379051473109485
299.76703444802325293
299.75805614669144461
299.7531811823832868
299.75140366185070206
299.75394609880453345
299.76117461883126225
299.77055901953303874
299.77788060485659116
299.78030517799430754
299.77766190406634905
299.77170400668723005
299.7643155188894184
299.75760835575579222
298.88375972267158431
298.89258623794165715
298.89649632481763319
298.89432096799657756
298.88687107756032901
298.87371526107517639
298.85784357568303449
298.83855939404207902
298.82036372316792949
298.80264086267209223
298.7870599676296024
298.61794226344005665
298.62289750203137828
298.62448776160937314
298.62682908450273089
298.63261115013062863
298.64245380591654566
298.65555482676944621
298.67102266282677192
298.68818063602890334
298.70606533849098696
298.72298181552798724
298.73752762667129446
298.74899374262184892
298.75736643218579047
298.76247037736106904
298.76352634265271035
298.7602305649041341
298.75460178224574292
298.75127953654714474
298.75515665369027829
298.76786392215183241
298.78598483996631785
298.80229681440516742
298.81046842672844832
298.80949962693381394
298.80435946022976168
298.80278321744708592
298.81004370623799105
298.82535030763813211
298.84261353734569866
298.8543655892121933
298.85640647796611802
298.85018349422921347
298.84084855351773058
298.83343150978714675
298.83017122542713651
298.86790288054817211
298.85302561304473556
298.84212670246063226
298.83609856873380295
298.83540456499736138
298.83994976342529526
298.84914094678413221
298.86164844679205999
298.87577644343906513
298.88956779418339238
298.90094729392762929
298.90821166308955981
298.91038192414919195
298.90651393125654067
298.89760523547403182
298.88347989130846827
298.86728107016398326
298.8485028083969155
298.83139997241880792
298.81511881751612236
298.80121727021219158
298.60737925517588565
298.61661623879768968
298.62392496091166549
298.63201466421412533
298.64165410984355731
298.65202219434337394
298.66222687254872881
298.67239348788780262
298.68342977791121484
298.69587871675543056
298.70913525669845967
298.72190714517898869
298.73313029343830749
298.7419533359475281
298.74752486371522764
298.74909767407757499
298.74719526432267003
298.74506492539074998
298.74813717671554514
298.76110240580902655
298.78438502030104473
298.81228410471055668
298.83535903782802734
298.84621558093328986
298.84392685335438955
298.83463800785813191
298.82765997021687099
298.82946898985119333
298.84000585687817875
298.85346367730903694
298.86246938318424782
298.86285154489638671
298.85572630517947346
298.84595849987482552
298.83870070662720764
298.83693796620588046
298.89402105249808983
298.87898864998680892
298.86778140930840664
298.86144652416430745
298.86045609717712068
298.86453684852938295
298.87288881602734136
298.88404899657547276
298.89623057712560694
298.90746541547451898
298.91591392179793729
298.92022864177238262
298.9197070528881568
298.913891606812399
298.90403661408026892
298.89003165296918496
298.87493441540073036
298.8582770707889722
298.84379128397290515
298.83030456440235412
298.81908749204609421
298.62126818655031002
298.63405670202257625
298.64645149956038495
298.65788124758302047
298.66691202399925942
298.67326797099138957
298.67824246709221825
298.6837046409073082
298.69085839629082102
298.69977360204791239
298.70964250790331107
298.71953397189150792
298.72843183620443597
298.73495045855418084
298.73784865218345885
298.73789455482358335
298.73889857344801158
298.74679308191576865
298.76656657408858564
298.7981270696093361
298.83435732951653563
298.86430187166342876
298.87938218351337127
298.87787943242460642
298.86607285818382707
298.85358326463847334
298.84745058874068491
298.84937084505577332
298.85606586275133623
298.86209746808242471
298.86330376250418794
298.85921855849494477
298.85301813846638197
298.84897485696666308
298.90454780529796608
298.89467506110776185
298.88928627509181979
298.88870400297588503
298.89241393219998599
298.89939111534744143
298.90811142854266791
298.91684442555680334
298.92398956935852539
298.92820835963954096
298.92857092062195079
298.92505065072555226
298.91745347365758789
298.90733422692039767
298.89463774093826487
298.88207368736055969
298.86894304359105945
298.85834827808980663
298.84864831858106982
298.84089132047483872
298.63750757789097179
298.65283319674784934
298.66584647778046246
298.67647830733511682
298.68378744757666254
298.68772307507987307
298.68985110797939342
298.6919240974823424
298.69487177864158411
298.69891559937906322
298.70413116857730529
298.71065385689445293
298.71806049913391234
298.7250324515448483
298.72993266393143585
298.73277674561978756
298.7368974274289144
298.74812226690107764
298.77151788833492674
298.80706634148856438
298.84786410305082427
298.88281587255585237
298.90242843083598245
298.90391422977029379
298.8917017973521979
298.87384612729749733
298.85840004907470302
298.85009813544110102
298.84909290081526478
298.85260070871407834
298.85738571464003144
298.86150697955775968
298.86463246930236437
298.86752387355710425
298.93049553185568357
298.92342252027935956
298.92007455305235908
298.92031401919740574
298.92340171475245825
298.92819511469235749
298.93325546982680407
298.93731675332594477
298.9392832992731428
298.93844087824197686
298.93459662838188251
298.92819133792806952
298.91937869605652622
298.90987640619476906
298.8995120591499699
298.89047852899125246
298.88166785099281242
298.87545509280772649
298.87010474871954102
298.86626918069418934
298.67798517631678124
298.68872901756861893
298.69655452452155942
298.70264195858038647
298.70710790615339647
298.71010698998958333
298.71164031281557527
298.71147140337944847
298.70999483131151919
298.70861098434590986
298.70915600989434324
298.71281459829572213
298.71909186190470109
298.72625865842019266
298.73311938773247221
298.7412545211219026
298.75504635658785446
298.77874152156215359
298.81278805469497684
298.85215335257311153
298.88776885911073578
298.91065062974024613
298.91599135450076119
298.90498542825508821
298.8838542408686294
298.86079227555831039
298.84294390858019597
298.8347454621923589
298.83755117403097756
298.84972188378952751
298.86660243452621444
298.88247102613098605
298.95561507397894729
298.95454941082249434
298.95539413478803681
298.95727282813663805
298.95923814592390499
298.96013651713320769
298.95914712281484071
298.95590812965798477
298.95036077803666785
298.94274123584875724
298.93396344086397676
298.92457505533627682