/*--------------------------------*- C++ -*----------------------------------*\
  =========                 |
  \\      /  F ield         | OpenFOAM: The Open Source CFD Toolbox
   \\    /   O peration     | Website:  https://openfoam.org
    \\  /    A nd           | Version:  12
     \\/     M anipulation  |
\*---------------------------------------------------------------------------*/
FoamFile
{
    format      ascii;
    class       volScalarField;
    location    "0.011";
    object      alphat;
}
// * * * * * * * * * * * * * * * * * * * * * * * * * * * * * * * * * * * * * //

dimensions      [1 -1 -1 0 0 0 0];

internalField   nonuniform List<scalar> 
75962
(
5.6254891791370874084e-07
6.6704433529745692585e-07
7.6119298241586106238e-07
8.6600698145627543728e-07
9.9492428728960194572e-07
1.1198206451700320059e-06
1.2178750695420427505e-06
1.304317975364829831e-06
1.4097203535216984546e-06
1.5418980381804541088e-06
1.6772368540208830403e-06
1.7885616522065169358e-06
1.8599942482139169784e-06
1.8982865498335588914e-06
1.9387279944065659407e-06
2.0318022522730248567e-06
2.1890195911641369281e-06
2.2895703281397972879e-06
2.3368237079517587613e-06
2.4047066305241072962e-06
2.5337556118803910229e-06
2.6477406900810950195e-06
2.7085858996124882365e-06
2.7554198139830953398e-06
2.8480341587289143235e-06
2.9973891664154071594e-06
3.1552400570296019195e-06
3.2686382404813914226e-06
3.3251093126171554513e-06
3.3485864691157321755e-06
3.3758182606004952174e-06
3.4370869691544900662e-06
3.5726370651203231363e-06
3.7421462480607447329e-06
3.9191761810645951456e-06
4.0801462628095877484e-06
4.2013014917233419129e-06
4.2736815888413027368e-06
4.3068377170280422114e-06
4.3178010719591197039e-06
4.3242970076685267742e-06
4.3402449616928309256e-06
4.3858130935625344452e-06
4.5188036359387975273e-06
4.6892009222567362068e-06
4.8187261454246044836e-06
4.897126140805267915e-06
4.9316111924076044064e-06
4.9437191816927897371e-06
4.9587798192862730183e-06
4.9967449682045495795e-06
5.1008871291121767543e-06
5.2488010895278799022e-06
5.3716487309043795198e-06
5.4484171193394426879e-06
5.4835409611898589723e-06
5.5091682801694004937e-06
5.5643507877447519479e-06
5.6575730192233569861e-06
5.7543559440872051944e-06
5.8378060867045040742e-06
5.9093834100474832655e-06
5.9822612163490438661e-06
6.0602800092020605902e-06
6.1316193132797757758e-06
6.183495792423090572e-06
6.2135643947933991507e-06
6.2311404088371332311e-06
6.2567390222073579541e-06
6.3086464688317986824e-06
6.3849255735784972131e-06
6.4697563018620085569e-06
6.5510632791584639184e-06
6.6254567629977819323e-06
6.6948868750600198913e-06
6.7638028152386600933e-06
6.8412572100375087771e-06
6.927404332170280718e-06
7.0132826171310260328e-06
7.0915920890763672167e-06
7.1605483046786040269e-06
7.2204174049311742008e-06
7.2743153154532267204e-06
7.3278320464142854583e-06
7.3826272979070584353e-06
7.4337450444136383743e-06
7.4745020785392172455e-06
7.5006224818338568665e-06
7.5136369913791602998e-06
7.5208463355158474084e-06
7.5349772789606520577e-06
7.5737544690081604463e-06
7.6830579820389825898e-06
7.839647242693611914e-06
7.9807303901917072802e-06
8.090609935201453472e-06
8.1708576490903233447e-06
8.2321732418345472116e-06
8.2817150664710969231e-06
8.322850264269711777e-06
8.3575352052897561436e-06
8.3901972713303958905e-06
8.4277908797868407366e-06
8.4780696241362097932e-06
8.544826608663768768e-06
8.6243026127619725282e-06
8.7049196168243497032e-06
8.7727075382546561278e-06
8.8183528737747316644e-06
8.8415342631108167446e-06
8.84990026471045044e-06
8.8559205877582804358e-06
8.8717885223637201766e-06
8.9158327043645463437e-06
8.9919710005136631108e-06
9.0806506169585606621e-06
9.1679533588961766737e-06
9.2402554251155402166e-06
9.2910927807256577155e-06
9.3227450982978477245e-06
9.3446891028344995458e-06
9.3682802946784492871e-06
9.4025662236343696137e-06
9.4515551017371710084e-06
9.5140463390203020542e-06
9.5843071409444357411e-06
9.6547122591161084931e-06
9.7177479125324452191e-06
9.7670638776303544937e-06
9.7989515806045882101e-06
9.8132204906434933843e-06
9.8151312342682119901e-06
9.8114777987382486451e-06
9.8063447343908382496e-06
9.8054812322658998109e-06
9.8317629923711639565e-06
9.9301624040913396001e-06
1.0033285883690652739e-05
1.0107243036267097677e-05
1.0157616092348910116e-05
1.0193291411622031945e-05
1.0224730947216913537e-05
1.0260422457375556292e-05
1.0305318740303277648e-05
1.035924124119648015e-05
1.0418366571049367654e-05
1.0477279520972321693e-05
1.0530535740765702393e-05
1.0573779898820007532e-05
1.0603961906691551704e-05
1.0620354554027896282e-05
1.0624898793470027771e-05
1.06225810469354884e-05
1.0620094693376200674e-05
1.0623549907348398097e-05
1.0645393735970511297e-05
1.0689614656514944275e-05
1.073168690464422618e-05
1.0763376363129364017e-05
1.078004763100331e-05
1.0785291123343250766e-05
1.0787142612563914318e-05
1.0796211884885613164e-05
1.082448617728761048e-05
1.0880047741849626858e-05
1.0962635000306234374e-05
1.1066102377432017576e-05
1.1181838508790383131e-05
1.1302723152221257213e-05
1.1424737661973465526e-05
1.154345533342034112e-05
1.1651003847123656649e-05
1.1736408004072587129e-05
1.178950959069540961e-05
1.1808906838372360083e-05
1.1806601616537639447e-05
1.1792398630878538616e-05
1.1738462113741404157e-05
1.16585433242188499e-05
1.1612292287329569775e-05
1.1592288379695730251e-05
1.1582950943507269742e-05
1.1585309595727791073e-05
1.1630338280664534833e-05
1.1720787846259916968e-05
1.1799008754098721919e-05
1.1867200523331343149e-05
1.192711374594589938e-05
1.2288982682696103599e-05
1.2263261137854122531e-05
1.2247720962876811323e-05
1.2237542191060537009e-05
1.2236594341131939344e-05
1.2264365774710739827e-05
1.2372209473804598982e-05
1.2528091428427546859e-05
1.2664524065368967538e-05
1.2776834270878691035e-05
1.2863584238791675706e-05
1.2928949802599126758e-05
1.2978756232104437244e-05
1.3016779341019250473e-05
1.3044673662925941881e-05
1.306036744047514819e-05
1.3064450200830642651e-05
1.3059572849212889399e-05
1.3050272715464455729e-05
1.30323675917030922e-05
1.2987479271791756041e-05
1.2887872109792601163e-05
1.2788252977396018416e-05
1.2705736333667565026e-05
1.2640807512590795627e-05
1.2595223875632964447e-05
1.2567569831254180295e-05
1.2554519562856600453e-05
1.2548658102821110008e-05
1.2553942884144399968e-05
1.259880201094407652e-05
1.2755425102423286599e-05
1.2946191946976226683e-05
1.3093546893790507726e-05
1.3198701666852770168e-05
1.3269025504820678905e-05
1.3311597162766335516e-05
1.3335412275902841405e-05
1.334645544950067323e-05
1.3349294934544645439e-05
1.3346726557345185547e-05
1.3340772697044047179e-05
1.333238002770176521e-05
1.3315582154732503396e-05
1.3270312585780225808e-05
1.3151770429934474068e-05
1.3019612270400734329e-05
1.2918408619148649924e-05
1.2851423391777456114e-05
1.281605762402148458e-05
1.280055281606382461e-05
1.2795079229753788641e-05
1.2822026195512219098e-05
1.2952237157830095947e-05
1.3138466387935360496e-05
1.3279344420213667289e-05
1.3378434884501526101e-05
1.3442046737782665041e-05
1.347942189046582456e-05
1.3499674489770609187e-05
1.3510990169110974151e-05
1.3518393426294363966e-05
1.3524798507255166418e-05
1.35301619724030659e-05
1.3534058002612337539e-05
1.3533538569614992231e-05
1.3528088834524263484e-05
1.3517700787218556285e-05
1.3505217007845197701e-05
1.348289829566509066e-05
1.3420701408999643e-05
1.324953508878790429e-05
1.305973605567154181e-05
1.2917805095447931952e-05
1.2828791591676393487e-05
1.2785681268769415571e-05
1.2771000371397343967e-05
1.2771574537568232158e-05
1.2821058115306618885e-05
1.3015515161049508638e-05
1.3279596761612090028e-05
1.3489742343157823162e-05
1.3654639982631696922e-05
1.3788976158426180123e-05
1.390796563656759502e-05
1.40186780269440621e-05
1.4120104840751633644e-05
1.4202052732757478693e-05
1.4255228882964999926e-05
1.4275393244838115593e-05
1.4271802559370714086e-05
1.4252410588945569123e-05
1.417923247259013608e-05
1.3953583556540029848e-05
1.3705678658414345859e-05
1.3544938200376067578e-05
1.3465113060429586726e-05
1.3437831365232821054e-05
1.3432962872990127269e-05
1.3476442725515806777e-05
1.3620817367359153082e-05
1.3740253240991015177e-05
1.3807863301869978368e-05
1.3838374349694164203e-05
1.3847370784452720134e-05
1.3847628654458149277e-05
1.3845652266750093111e-05
1.3842839118550747247e-05
1.3838162070032750285e-05
1.382936447544461446e-05
1.380729816252164845e-05
1.3743506706909302761e-05
1.3574657039848513917e-05
1.3381879018597954076e-05
1.322220231797046857e-05
1.3099862474803902629e-05
1.3015288959585642818e-05
1.2963314086164382519e-05
1.2935463559413898116e-05
1.2921679172530319419e-05
1.2913753347025823696e-05
1.2912148891500566838e-05
1.2928089952500447307e-05
1.2953117595288851044e-05
1.2969778653973125941e-05
1.2977894747058837851e-05
1.2978764392294469887e-05
1.2973513354087196447e-05
1.296450267620647285e-05
1.2953067941742870108e-05
1.293714392502525701e-05
1.2909148248774651754e-05
1.2853704851957425251e-05
1.2793139648980724604e-05
1.2738466286075989848e-05
1.2690985071511049569e-05
1.2651334054328827055e-05
1.2619254826051363931e-05
1.2595286885152407586e-05
1.2578122866468883186e-05
1.2566802137583961589e-05
1.2559740850791769931e-05
1.2554699191831298014e-05
1.255125890421879243e-05
1.2551153712605770025e-05
1.2559593734852608464e-05
1.2569789160272380364e-05
1.257652047000717662e-05
1.2579802263793927032e-05
1.2580188743203149618e-05
1.2578608695195027677e-05
1.2575920343227496901e-05
1.2572714466476780961e-05
1.2568965472605002988e-05
1.2563154927928055806e-05
1.2552937451500845636e-05
1.2542275966510901925e-05
1.2532225991054359184e-05
1.2523032676880104235e-05
1.2514719831697564085e-05
1.2506785620555547079e-05
1.2498926216713397518e-05
1.2490816490684949179e-05
1.2482649214826097408e-05
1.2476071795065481722e-05
1.2476974034528923554e-05
1.2485707923858556614e-05
1.2492727385654826317e-05
1.2497560535424116264e-05
1.2499987011767662746e-05
1.2499868116451573087e-05
1.2497167993340063197e-05
1.2492348314054643309e-05
1.2485432081307077122e-05
1.2477323524378274909e-05
1.2468347838793202958e-05
1.2458111758961943e-05
1.2445121938039433864e-05
1.2426892132289649081e-05
1.2408200123690584028e-05
1.2390772107298174819e-05
1.2375129221427845147e-05
1.2361585673379296653e-05
1.2350094981686898863e-05
1.2340069468670222035e-05
1.2331149186541197192e-05
1.2322928498263607702e-05
1.2316912858314901043e-05
1.2317879094221302624e-05
1.2324437119030161761e-05
1.2329143456669915311e-05
1.2332065705044200355e-05
1.2333247870797452018e-05
1.2333051798458683989e-05
1.2331741704420550698e-05
1.2329317751083247636e-05
1.2326140435591000997e-05
1.2322190997677543142e-05
1.2317380170899219357e-05
1.2311729945079587955e-05
1.2305254221367977803e-05
1.2297810775105321807e-05
1.2289145972103032351e-05
1.2278134983782823376e-05
1.226508957448224315e-05
1.2251971314764893291e-05
1.22391320895461788e-05
1.2226805437898493278e-05
1.2215117282268760123e-05
1.220403749331636587e-05
1.2193346051308097305e-05
1.2183092851114065572e-05
1.2173328419377693526e-05
1.2163957561964696438e-05
1.2154908955231524448e-05
1.2146087196160973727e-05
1.2137449332356870917e-05
1.2128954868268559012e-05
1.2120910669648661133e-05
1.2114116481432978412e-05
1.2111024724560365731e-05
1.2113119047819944271e-05
1.2115679851465124177e-05
1.211803276554649805e-05
1.2120036737177808061e-05
1.2121419522653933983e-05
1.2121905598738102092e-05
1.212121360583973004e-05
1.2119125941742923825e-05
1.2115674836719327148e-05
1.2110874934772773864e-05
1.2104514010294640942e-05
1.2096874295386702511e-05
1.2087989618737928711e-05
1.2078243026461009377e-05
1.2067871494952995331e-05
1.2057094950072789604e-05
1.2045864629146953081e-05
1.2033367878282220795e-05
1.2017619696436340781e-05
1.200263278917790181e-05
1.1987302683422160457e-05
1.1973291566924831544e-05
1.1958834048885579315e-05
1.1945466168797257383e-05
1.193143011291983859e-05
1.1918405594798537624e-05
1.1904643633819987723e-05
1.1891763103651466484e-05
1.1878133689646166239e-05
1.1865304304455688558e-05
1.1851887053775425122e-05
1.1839309725605071954e-05
1.1826479709107191339e-05
5.8697651816622397e-07
7.3504638369660324693e-07
8.6015737882510422927e-07
9.6618626240145284458e-07
1.0739226426057125979e-06
1.1746394636903230105e-06
1.2565285908857460684e-06
1.3513557694954179804e-06
1.4970452858448614434e-06
1.673818532973333035e-06
1.8204065219981230972e-06
1.9102033778904995149e-06
1.9583630126955574515e-06
1.9896321191717568079e-06
2.0343273311724197888e-06
2.1367129117190625197e-06
2.3323425565658962465e-06
2.4907099161541418976e-06
2.5727656336741275983e-06
2.6065931855190786339e-06
2.657183122519814932e-06
2.7690670308207977219e-06
2.8532505701380273134e-06
2.9022168259317073114e-06
2.9853292678580392929e-06
3.1345053865592074125e-06
3.3002081339298015524e-06
3.4218313075913193772e-06
3.480953893276126956e-06
3.5085491471559409199e-06
3.5534786732442948675e-06
3.659459887840991631e-06
3.7804093053430640417e-06
3.8766703389676134404e-06
3.9647470456779675043e-06
4.0749645641429873614e-06
4.2125233822706086205e-06
4.3497204911681012549e-06
4.4519580990242688131e-06
4.5065414000926275084e-06
4.5301150858469690235e-06
4.5562862560296690386e-06
4.6209275485111755616e-06
4.7485601080891411913e-06
4.8749833288898398719e-06
4.9803884792854687631e-06
5.0579844233371356661e-06
5.1048755884144532131e-06
5.1291193903542876009e-06
5.1543521856907932992e-06
5.2085413193222543653e-06
5.3112378946273368425e-06
5.4563739410127268725e-06
5.61377063624154006e-06
5.7473867768461983163e-06
5.8371457510975545112e-06
5.8868465588581144911e-06
5.920439570844133834e-06
5.9679730403765475502e-06
6.0449164299728356744e-06
6.1444466453510202989e-06
6.2455473346180203668e-06
6.3269333917058647839e-06
6.3765641003719481233e-06
6.3977484006665573155e-06
6.4090854005911813003e-06
6.4344501627926265662e-06
6.5016121257642062295e-06
6.5876845944149591783e-06
6.6631317096354766564e-06
6.7250686539075338612e-06
6.7863779511691788466e-06
6.8636619087261811699e-06
6.9631978796307999655e-06
7.0773229479446411107e-06
7.1899686540052911915e-06
7.2853552421273147779e-06
7.3584269632876373636e-06
7.4141153028227422763e-06
7.4615849477969711635e-06
7.5102867688321134958e-06
7.5678923342285611822e-06
7.6385252560948972684e-06
7.7215378184966597418e-06
7.8067755242791652168e-06
7.8773201859898628265e-06
7.9228767835344000154e-06
7.946899708404068057e-06
7.9622734565417354236e-06
7.9823821176815610808e-06
8.0184763064052008615e-06
8.0775640382071984001e-06
8.1580468113717722337e-06
8.250063791989957528e-06
8.340875324318552898e-06
8.4234039639341424285e-06
8.4963242095183048771e-06
8.5616861790523428913e-06
8.6221866820410243248e-06
8.6811600124085258883e-06
8.7428423834313732043e-06
8.8097577577527394309e-06
8.8818404187947541829e-06
8.9560956020592927642e-06
9.0272366399290657305e-06
9.0884318076157852881e-06
9.1333581371308392264e-06
9.1596974818325285848e-06
9.1710114668791556473e-06
9.1773231980208284068e-06
9.1917725881388201339e-06
9.2298373761671104675e-06
9.3100568990068165528e-06
9.4257050029068889106e-06
9.5640168771306814682e-06
9.703583069097383414e-06
9.8219611435260145704e-06
9.9047446319728783468e-06
9.9493315649429402809e-06
9.964605878242758583e-06
9.9661136440573899894e-06
9.9703280717735027989e-06
9.9912092552801531366e-06
1.0034297376372434052e-05
1.0086411657650683871e-05
1.013904458527751265e-05
1.0186556794051195292e-05
1.0226058178727963759e-05
1.0255912623479838318e-05
1.0275281328656512935e-05
1.0284205249275395422e-05
1.0286012075424057872e-05
1.0284820666669966199e-05
1.0284414549010919418e-05
1.0294208112458096848e-05
1.0350772480371081088e-05
1.0493668110519906861e-05
1.0617752022891211681e-05
1.0706188197146841997e-05
1.0764816593219539282e-05
1.0805463579461968644e-05
1.0840967489126303796e-05
1.0880039199488836704e-05
1.0926425953740532662e-05
1.0978459944541065556e-05
1.1031165525333252122e-05
1.107938189599521314e-05
1.1118973372271635149e-05
1.1147066519705811971e-05
1.116303559555060037e-05
1.1167569708447377646e-05
1.1164222608537850291e-05
1.1157244447190694712e-05
1.1151410850224810004e-05
1.1151011827114102394e-05
1.1166015898593652545e-05
1.1191901059328240593e-05
1.1214794344612847389e-05
1.1232402547197391972e-05
1.1244575751635716552e-05
1.1255987173462340492e-05
1.1273684046745852417e-05
1.1307809770094898229e-05
1.136475705839516532e-05
1.144754670423946309e-05
1.1552550743258014582e-05
1.1672116290790881472e-05
1.1795735707021730234e-05
1.1916217240530102236e-05
1.2029138056161152819e-05
1.2131534515793066539e-05
1.2218514465437286105e-05
1.228477974353892513e-05
1.2324439461873124105e-05
1.2338082184305411535e-05
1.2335258812308032389e-05
1.2320814939626808544e-05
1.2267838669371815353e-05
1.2199854757937052185e-05
1.2163255742206016035e-05
1.214865971181026357e-05
1.2143906176478627251e-05
1.2170047894942322288e-05
1.2287504750347392099e-05
1.2434464142864270773e-05
1.2544712333053308962e-05
1.2625679694230967584e-05
1.2682236944264096897e-05
1.2720526791035776024e-05
1.2991004232172482065e-05
1.2942985289444019646e-05
1.291251151090840564e-05
1.289467616218642613e-05
1.2883629486105426174e-05
1.2884776413693435973e-05
1.2927018107996093594e-05
1.307654375850810435e-05
1.3256460508202568292e-05
1.3401056087092880505e-05
1.3509673386053976571e-05
1.3584949968530987316e-05
1.3635335851685498101e-05
1.3668908688236896347e-05
1.3692043471962515917e-05
1.3707298310823259318e-05
1.3714529164535077554e-05
1.3714054558325057605e-05
1.3707686468800201024e-05
1.3697594814228217756e-05
1.3677727210809537928e-05
1.3629153539000547196e-05
1.3525369191590535988e-05
1.3420583636895347098e-05
1.3329796740437545327e-05
1.3255855658109702078e-05
1.3201619253239111696e-05
1.3167865775109034105e-05
1.3150734038190956118e-05
1.3143308859826678813e-05
1.3143436990336214429e-05
1.3171877470706641315e-05
1.3291977084071131553e-05
1.3480862684879835696e-05
1.3635807715110116921e-05
1.3758429838690365189e-05
1.3853952141953440374e-05
1.3929342792937075084e-05
1.3988077525175292258e-05
1.4032788076310903524e-05
1.4062981627956320764e-05
1.4078811539861407336e-05
1.4081493506193194383e-05
1.4074923814137984954e-05
1.4063316145244385212e-05
1.4036318324569636176e-05
1.3955705664995137784e-05
1.3802587178758631153e-05
1.3676102874828777127e-05
1.3589129962454416339e-05
1.3539856422445410849e-05
1.3517708143075883752e-05
1.3507809925786595431e-05
1.3517303775119897497e-05
1.3596345574573841206e-05
1.3743074116509322068e-05
1.3859182579603907201e-05
1.3944033135148276771e-05
1.4005051060810016646e-05
1.4047874423632012651e-05
1.4080338629853984489e-05
1.410732094678354611e-05
1.4132969876163986036e-05
1.4157501622594883663e-05
1.4180327870566139119e-05
1.4199309625316895587e-05
1.4210853806555607135e-05
1.4213633666736862443e-05
1.420758570701888382e-05
1.4196665891936499954e-05
1.4180586917363467866e-05
1.4139085771616712007e-05
1.4008253412545070124e-05
1.3802062037449968249e-05
1.3639573370495011552e-05
1.3533512247783740273e-05
1.3478982799852939309e-05
1.345972955134324084e-05
1.345544655229268064e-05
1.3486234638916492419e-05
1.3634725743383824487e-05
1.3917454783187697558e-05
1.415013789681526888e-05
1.4329094017413408359e-05
1.4470115745988326939e-05
1.4595239716451970116e-05
1.4716615041714222926e-05
1.4836760857119260303e-05
1.4943113317540918677e-05
1.5020540502552095415e-05
1.5058688483910099808e-05
1.5062118295477091461e-05
1.5046917297310800367e-05
1.4992474559096341278e-05
1.4801167386004384152e-05
1.4519728307033791066e-05
1.4326325254874765523e-05
1.4223623643358052654e-05
1.4185501555121831916e-05
1.417494447402907587e-05
1.419499268740641052e-05
1.4301902215618353864e-05
1.442173822195820938e-05
1.4496079072805023822e-05
1.4537917180007676056e-05
1.4560751827439523967e-05
1.4574041102758845753e-05
1.458245150358680037e-05
1.458595787811426863e-05
1.4584304408906462647e-05
1.4577684810889310005e-05
1.4563599421703383899e-05
1.4524845473790357479e-05
1.4407500208372646671e-05
1.4200947244273227967e-05
1.4021903200434553439e-05
1.3883282344288734082e-05
1.3785777628679342398e-05
1.3724227107350508165e-05
1.3690223558716211176e-05
1.367339635971308766e-05
1.3664409643069228348e-05
1.3659692014106687076e-05
1.3665988560837459895e-05
1.3681746690561359629e-05
1.3690810038305786149e-05
1.3693409618443326878e-05
1.3689522048349416663e-05
1.3681228992505926542e-05
1.3670239687772965496e-05
1.3655434431359217157e-05
1.36311770649855735e-05
1.3581657077209024822e-05
1.3518494784558629203e-05
1.3460896143463472113e-05
1.3409896239557982683e-05
1.3366534507126217834e-05
1.3330731446911576907e-05
1.330191749903495167e-05
1.3280361616133065948e-05
1.3265010695218115632e-05
1.3254823618212017896e-05
1.3248399135835057602e-05
1.3243885833756982454e-05
1.3240839260583133944e-05
1.3240287285769663722e-05
1.3245367746984629164e-05
1.3250521384025333149e-05
1.3253027466336581562e-05
1.3253020760693196435e-05
1.3251190637482349784e-05
1.324850838520185865e-05
1.3245428817393968668e-05
1.3242128238128472842e-05
1.3238098414219130712e-05
1.3231290215950432411e-05
1.3221875794404238489e-05
1.321255595620532442e-05
1.3203203798427922395e-05
1.3194064306065575096e-05
1.3185075434394291099e-05
1.3176148896503058226e-05
1.3166914031284295447e-05
1.3157469630777821854e-05
1.3148357544845418838e-05
1.3141595309771806596e-05
1.3143738837489404836e-05
1.315217991921159449e-05
1.3158792033659991467e-05
1.3163036916323658581e-05
1.3164670734753096426e-05
1.3163505022435397859e-05
1.3159769701123962294e-05
1.3153500327590368789e-05
1.3145352494052071565e-05
1.3136006328592481944e-05
1.3125428637595604086e-05
1.3112661473709784964e-05
1.3095114907478893121e-05
1.3075867862450630128e-05
1.3057986261356057276e-05
1.3041874023587260561e-05
1.3027628044609556338e-05
1.3015457303799811666e-05
1.3004837912885502509e-05
1.2995580476409935615e-05
1.2987028729224387339e-05
1.2979723597935880297e-05
1.297606559655366338e-05
1.2980823607767117995e-05
1.2986272917943548523e-05
1.2989075732211970341e-05
1.2989400025063082861e-05
1.2987734819427725766e-05
1.2984284920982714777e-05
1.2979714863249425607e-05
1.2974497791938420356e-05
1.2968988969999069381e-05
1.2963209903177121219e-05
1.2957149453446480098e-05
1.2950509336383560148e-05
1.2942881964005472256e-05
1.2933634004282233319e-05
1.2922804175845847705e-05
1.2911631621241830879e-05
1.2900268603530200804e-05
1.288901343709846769e-05
1.2878130795035347956e-05
1.2867808097506327396e-05
1.2857906370684202071e-05
1.2848267547198325558e-05
1.2838946178141358388e-05
1.2829863314725919397e-05
1.2820959969443832235e-05
1.2812097694421573392e-05
1.2803185372630034502e-05
1.279424297131753779e-05
1.2785251697134773763e-05
1.2776470817129414673e-05
1.2768552012365610776e-05
1.2763316278252649831e-05
1.2762100396265031019e-05
1.2761776655792143583e-05
1.2761997530072700938e-05
1.2762574202891988176e-05
1.2763215623818709507e-05
1.2763363599269807357e-05
1.2762701814012148804e-05
1.2760818274556591151e-05
1.2757561245904357138e-05
1.2752983247565858265e-05
1.2746848032244592028e-05
1.2739318319038743507e-05
1.2730404919378324584e-05
1.2720418993347797632e-05
1.2709683701288639716e-05
1.2698281463193648066e-05
1.2686555890324225241e-05
1.2673842602328327605e-05
1.2659468211933473159e-05
1.2643491967952235632e-05
1.2629299857790262417e-05
1.2614310359808689107e-05
1.2601052171675083326e-05
1.2586843859707486269e-05
1.2574095960265711041e-05
1.2560216926790551337e-05
1.2547754855644700268e-05
1.2534007590042710347e-05
1.2521643828694775235e-05
1.2507973516647967073e-05
1.2495548331328262676e-05
1.2481913080634518198e-05
1.2469465322214184978e-05
1.2456052239854029565e-05
5.9173669195040272143e-07
6.9649507935130983929e-07
8.7786320555489004612e-07
1.0168568561977029342e-06
1.0877392241158168948e-06
1.1771570756873932478e-06
1.2983548170651881117e-06
1.4219187691286432327e-06
1.5437791871846213521e-06
1.6715431088471329989e-06
1.8051896381528818143e-06
1.9402311543083024244e-06
2.0676468756210934819e-06
2.159028586039892853e-06
2.2075260077562166581e-06
2.2540255088409094601e-06
2.3570425643274958378e-06
2.5517014867946547091e-06
2.7214249573886133244e-06
2.8197119297123460772e-06
2.8587137527080879505e-06
2.8861332050362460776e-06
2.9475828780928194505e-06
3.0915934250145333331e-06
3.1905417618032171667e-06
3.2617836948370072354e-06
3.3798824455745900765e-06
3.5321589260436875378e-06
3.6477215656184174991e-06
3.7101016396801826756e-06
3.7654919355532068087e-06
3.8510381800646811975e-06
3.9567291342874996813e-06
4.0573907085176371515e-06
4.1512191180742664273e-06
4.2529894715474621781e-06
4.3648875326729155895e-06
4.4708980048880418403e-06
4.5556192288084107112e-06
4.6207527413733520767e-06
4.6876575866628906452e-06
4.7799697311746992451e-06
4.9061619941630916616e-06
5.050801022352484812e-06
5.1831512150523173551e-06
5.275013496833352664e-06
5.319608930668640036e-06
5.3420623193395808692e-06
5.3856375361937286624e-06
5.4807303950143768288e-06
5.5934959194886728077e-06
5.7165872230313160356e-06
5.8546369675460031319e-06
5.9971774592689672845e-06
6.1188791912184315724e-06
6.1979769318615960451e-06
6.2355076508125090103e-06
6.2514672273950434682e-06
6.2700957357832248933e-06
6.315327296198210193e-06
6.4255023903686305642e-06
6.5544046055551004578e-06
6.663580859445833412e-06
6.7380501413660505786e-06
6.7790656882680546628e-06
6.7979745667407551185e-06
6.8079980384522721358e-06
6.8236558301341213796e-06
6.8597468961524214767e-06
6.9272043494525162719e-06
7.0298273142102215021e-06
7.1629360318428710557e-06
7.3143254245169055694e-06
7.4653532098990836672e-06
7.5943781247144302878e-06
7.6867142156417799539e-06
7.7441208860609447162e-06
7.7819285812181848906e-06
7.8187085830752331482e-06
7.8676475399941740425e-06
7.9319324200142433875e-06
8.0081555525302718031e-06
8.0910836030439985388e-06
8.1748620489412330084e-06
8.2526404937298948697e-06
8.3171810658815046398e-06
8.3630644609578416493e-06
8.388873406057813112e-06
8.3987005431763705863e-06
8.4030001857302431844e-06
8.4145969705844490236e-06
8.4513566617667108306e-06
8.566561665742933047e-06
8.7223494998581523697e-06
8.8469087055651315688e-06
8.9349027283409023246e-06
8.9966874913528495995e-06
9.0489940385545286118e-06
9.1056172829015347717e-06
9.1713203478170352549e-06
9.2437616863794534473e-06
9.3172404627309842969e-06
9.3891909218268483921e-06
9.45838751710153413e-06
9.5220573164642913943e-06
9.5756701758803302178e-06
9.614551157812980514e-06
9.6372128982249632886e-06
9.6506351059579749429e-06
9.6703990657981753263e-06
9.715760588560116607e-06
9.7978130511072221301e-06
9.913112686269166392e-06
1.0045617803496042296e-05
1.0172383038939645722e-05
1.0274062193546377748e-05
1.0340727191701055296e-05
1.0375471741334866746e-05
1.0390982231489515311e-05
1.0403803769944799013e-05
1.0427880087520672859e-05
1.046973726217081919e-05
1.0527593854243757186e-05
1.0593769172424513948e-05
1.0658121390587205118e-05
1.0712001967611815427e-05
1.0751079318872980119e-05
1.0775060544199896803e-05
1.0786697406312681903e-05
1.0789693579102516301e-05
1.0788554206107926859e-05
1.0786952267535456938e-05
1.0787566854397832844e-05
1.0796064275755492366e-05
1.0837948872353932999e-05
1.0951030135382273166e-05
1.1057499930491665325e-05
1.1140031723373716071e-05
1.1202907036095990467e-05
1.1255135132148956669e-05
1.1307344980037502638e-05
1.1366834414931934301e-05
1.1435543103731552928e-05
1.1510021708710924378e-05
1.1584000757925609295e-05
1.16500150035691e-05
1.1703666458694641074e-05
1.1742486566169046166e-05
1.1766520689654777539e-05
1.1777493989011901242e-05
1.1777494005504229036e-05
1.1770623638694839756e-05
1.176069079060708011e-05
1.1748258103290727103e-05
1.1735937612927557202e-05
1.1727223550730891404e-05
1.1722794634942511807e-05
1.1734121796286341917e-05
1.1798097831207280005e-05
1.1896024818186655712e-05
1.19636682314232852e-05
1.2007294800301480191e-05
1.204176068020116285e-05
1.208272158364755203e-05
1.2141808174039776406e-05
1.2223589726357665119e-05
1.2327873056833298988e-05
1.2450174582177327351e-05
1.2585883298353492513e-05
1.2726436519220878926e-05
1.2859265967191172542e-05
1.2970797551554578392e-05
1.304842243421075465e-05
1.3086829120127221353e-05
1.3093853250964535622e-05
1.3085478688717620813e-05
1.3043355786357759446e-05
1.2939811085631887903e-05
1.2866461547174845313e-05
1.2834081474574912603e-05
1.2822999560544865778e-05
1.2836376638779167604e-05
1.2936348012334967879e-05
1.309878023650105275e-05
1.3212333388235288916e-05
1.3284068828020467287e-05
1.3328718355153034876e-05
1.3357232600310744498e-05
1.3378598627534417126e-05
1.366630916173909936e-05
1.3615747497272203949e-05
1.3585036070432833977e-05
1.3567017762713264137e-05
1.3555967848626262006e-05
1.3560820585722258496e-05
1.3619260370942762295e-05
1.3773933860565239448e-05
1.3920156267870375489e-05
1.4041295265312913251e-05
1.4140041177268480551e-05
1.4220369557347047865e-05
1.4288367804336420268e-05
1.4346746009908227406e-05
1.4395168833306630759e-05
1.443097054973320123e-05
1.4450927685482215377e-05
1.4455791704569742441e-05
1.4450084159780577037e-05
1.4438394004318657571e-05
1.4411157984090244827e-05
1.4335346215285097981e-05
1.4200186803668988838e-05
1.4082301087238864208e-05
1.3988982355338495402e-05
1.3922785887121255383e-05
1.388259301950612596e-05
1.3863021821191816901e-05
1.3854766450387935112e-05
1.3856533042938121625e-05
1.3894518469665266127e-05
1.4035149852427181256e-05
1.4214313385178294682e-05
1.4356904654817318048e-05
1.4464713561766331181e-05
1.45477271945948033e-05
1.4616781576688777172e-05
1.4680284139096560944e-05
1.474223296133492582e-05
1.479925436505392579e-05
1.484688186909818073e-05
1.4878432979661044861e-05
1.4891497740776843051e-05
1.4888730882097445492e-05
1.4877621139825017923e-05
1.4854850183596719556e-05
1.4788225147945817302e-05
1.4612910370783239105e-05
1.4433129837747191116e-05
1.4302783625039397922e-05
1.4221060471246452242e-05
1.4179640192607939947e-05
1.416237718534551899e-05
1.4155862568448266797e-05
1.4177582080760607432e-05
1.4282992818026925776e-05
1.4428853471297967899e-05
1.4547154889496314271e-05