/*--------------------------------*- C++ -*----------------------------------*\
  =========                 |
  \\      /  F ield         | OpenFOAM: The Open Source CFD Toolbox
   \\    /   O peration     | Website:  https://openfoam.org
    \\  /    A nd           | Version:  12
     \\/     M anipulation  |
\*---------------------------------------------------------------------------*/
FoamFile
{
    format      ascii;
    class       volScalarField;
    location    "0.011";
    object      k;
}
// * * * * * * * * * * * * * * * * * * * * * * * * * * * * * * * * * * * * * //

dimensions      [0 2 -2 0 0 0 0];

internalField   nonuniform List<scalar> 
75962
(
3.3787445797367540582e-05
4.7600312717082282534e-05
6.1877078095384763744e-05
8.017631513607497676e-05
0.00010568170452405181616
0.00013377142256628386146
0.00015845918148888385305
0.00018204399139867431454
0.00021302091005130318582
0.00025532423002537832629
0.00030281564037720255268
0.00034484440687648499875
0.00037285448969781657654
0.00038814520955520571228
0.0004054516726177662578
0.00044668090972585120868
0.00051999059093138229153
0.00056987171693315033082
0.0005941178032408170849
0.00062925209156702171815
0.00069874186847475013365
0.00076395466919290005211
0.00080129656453133742827
0.0008311174173639177638
0.00088924952692011772354
0.00098639711604773324012
0.0010952175117084576167
0.0011775040936789786441
0.0012201327965679961002
0.0012387670765851900058
0.001260196616578940134
0.0013071706042857989937
0.0014137883487127752592
0.0015541964937891424806
0.0017085351503720036526
0.001854944740046801481
0.0019692105201121329339
0.0020401532467742753384
0.0020748245857207989716
0.0020884781104583685293
0.00209767117348438328
0.0021155675026772978453
0.0021619794199607368299
0.0022965187842898630854
0.0024753656053007762859
0.0026177483627535529272
0.0027090337145394102931
0.0027535779605113667318
0.0027724518308599741326
0.0027929129229636484762
0.0028386401425167951534
0.0029617628018303292919
0.0031412910424832357278
0.0032961191271065146818
0.0033970764040551068227
0.0034465382818957067228
0.0034839004870363668095
0.0035596028906870829343
0.0036869756085913568851
0.0038224738660035543006
0.0039417173464676808978
0.004044308274314420068
0.0041479386137244292354
0.0042601580341802992163
0.0043665184135476429669
0.0044483797613772526128
0.0044995706550302180457
0.0045315657968173521028
0.0045744931180514130514
0.0046574425212873417704
0.0047797409537956459663
0.004917808858943197893
0.0050515295949561736522
0.005174597275862346385
0.0052911999885446401454
0.0054108449175311592802
0.0055491162410860233115
0.0057052903150629479673
0.0058619059819112724966
0.0060045844471662652639
0.0061293678548242575346
0.0062369324530850240793
0.0063339570959771995806
0.0064323970907674580741
0.0065374793677440631856
0.0066404644963316940623
0.0067268638192307973755
0.00678626491250291803
0.0068207426045651144142
0.0068444981498744315168
0.0068810170809170210365
0.0069623071886679710474
0.0071749601368988466174
0.007483262064179233182
0.0077714771175246364493
0.0080058641912365072213
0.0081837650357554601876
0.0083219099340060987552
0.0084333084554662519905
0.0085254823827488543375
0.0086037261340640228124
0.0086781651343784352998
0.0087633832749188129985
0.0088755665449584825177
0.0090237701153093249906
0.0092025142002596059532
0.0093894333008733687346
0.0095541917157262977456
0.0096731093815332312713
0.0097411979985823991118
0.0097739141670177224347
0.0097998257547541808843
0.009847977247361102901
0.009959998544825324901
0.010145711510925851939
0.010362383455560359585
0.010579698754175526076
0.010767107294703823564
0.010908516179599259122
0.011006707923765370744
0.011080808354540425814
0.011155351181202225949
0.01125102750587958847
0.011378943396369356478
0.011539700287760322472
0.011723122166238206243
0.011912551635892002638
0.012088592934649354874
0.012231960830843774043
0.012329681331651373352
0.012379365242205061376
0.012395264233381522029
0.012397580316151509544
0.012399444502033816345
0.012416245982501895179
0.01250431235150465531
0.012777657188134368751
0.013065862674773916566
0.01327926207958944442
0.013432459521604381975
0.013549713891675816205
0.01365821571684467349
0.01377860898255781931
0.013922216387690962078
0.014088224243556398893
0.014267372034340345191
0.01444621375998430754
0.014610348633031266727
0.014747683773201137811
0.014849705064913568814
0.014914583844235242832
0.014947745544346208862
0.014962548496658104394
0.014976286370834363329
0.015005340579305926837
0.015084799373544885426
0.015228136231867016662
0.015367510789297706211
0.015480163108711843256
0.015552326666104379985
0.015593172288523504329
0.015624823813756410704
0.015677410004265167343
0.015785810419865799192
0.015974562458725756475
0.016244332290285677656
0.016578878569349513733
0.016953898172945031791
0.017349053144369769308
0.017752655330466122346
0.018150746866431741178
0.018517041847960394318
0.018814152090802182399
0.019006737428005866103
0.019088548878683261889
0.019098336323572846079
0.019069646007155792444
0.018914934286032341476
0.018679760647085274367
0.018557401550878108165
0.018523527717140768345
0.018527439591906759431
0.018570597160948807552
0.018750499980520883569
0.019078165556443177353
0.019365740805330756286
0.019618310669780106292
0.019841298209972716565
0.022356156603830664581
0.022308278503124358977
0.02229535450466203772
0.022297652413982363417
0.02232866376136631581
0.022461050156428175734
0.022888057076113386273
0.023503711432560952382
0.024058300002601864381
0.024530262300983353418
0.024908367872611705818
0.025203170409378871514
0.025433722771401542223
0.02561358433119887909
0.025750223185447958241
0.025837205005847865835
0.025878813397435061067
0.025887084321344656923
0.025880940152478361382
0.025844118957235054368
0.025703912758360404622
0.025350222700300056172
0.024998577136116698766
0.024715406072449146169
0.024500394675685613355
0.024358743187211380488
0.024284071093607147163
0.024263560121239320655
0.024269344612629663999
0.024317971518691965105
0.02452144480689301409
0.025167623987383393874
0.025967287373698848263
0.026608361969027605198
0.027087433040411813823
0.027427386728336226179
0.027651631686717623171
0.027793598052094383583
0.027876485134827041351
0.02791978617244652433
0.027937254661606895911
0.027939899376350010862
0.027933903007090699067
0.027895498379829943014
0.027741165232681191943
0.027284599169540672825
0.026774873551172376218
0.026397346177756072366
0.026163609424887223492
0.026062174921259111116
0.026044431927305496111
0.026068721791842490443
0.02622389621239972976
0.026801376001638288482
0.027620469785166676391
0.028255860376734123762
0.028715890081543054418
0.02902398391178797471
0.029218661735906644589
0.029339392291566252641
0.029422300224424512149
0.029490154124892378751
0.029556676877133782749
0.029622512470225709214
0.02968588989486149049
0.029732932416247685736
0.029759428178649884045
0.029763040109281647255
0.029754600848205040031
0.029700304756977009141
0.029470014738871178755
0.028766544732015859182
0.027989873153622186336
0.027428417961881935289
0.027097219933635379591
0.026961458385428020007
0.02694445610904411606
0.026988764672544848094
0.027236320838762664853
0.028104367297106008089
0.029298691357154894171
0.030279146372348696853
0.031072930686862301752
0.031738071045329371844
0.032338248920228657157
0.032901955502149790589
0.033421746156200020372
0.033848063624880700417
0.034136324249803048914
0.03426764990550607709
0.034289240115672178777
0.034243026376766301511
0.03395038102828079607
0.032945371679955127997
0.031851130867666492541
0.031175884680607463678
0.030876272913561618461
0.030815096703533700201
0.030850983221250988242
0.031100872914961205651
0.031814384481470982247
0.032414148954089665178
0.032765811814514260447
0.032935907042710800552
0.032998600975956769721
0.033016513827138799231
0.033023313667119330583
0.033028505756785946079
0.033029689067320074092
0.033018355319625831978
0.032952448307966800134
0.032697515411265788698
0.031955165130240173466
0.031111159255215296154
0.030432015928829912049
0.029930015191370056005
0.029601193872068727597
0.029418007826258200238
0.029339794216535913102
0.029320033942149860418
0.029321367164801721839
0.029346088393981378112
0.02944634260860895178
0.029586735188316792139
0.029689301622432752448
0.029755154444168291361
0.029792009201370994037
0.029806166737644097103
0.029808736612450790343
0.029805427083938990096
0.029785593763452265781
0.02971318898138813891
0.02951630792565173092
0.029296280096170062429
0.029103538446188549627
0.028942818705295095261
0.028815667781327488489
0.028719510030577974358
0.02865551865464031206
0.028616835047942899839
0.028598818668254661485
0.028594815483969387993
0.028595770506045531389
0.028601134970739048452
0.028620007263940670794
0.028677029395557940283
0.028742022562895101073
0.028790836529366443247
0.028823230554309752643
0.028841501790825774948
0.028849855260025904224
0.028852421770629761016
0.028852269422233886575
0.028849746848695248524
0.02883830602291072992
0.028807455680336904041
0.028775642038968825276
0.028748323683220521063
0.028727240598930624954
0.028713182436693684974
0.028704458327275441526
0.028699985951200875783
0.028698231148829671938
0.028699483191670493304
0.028710180566080319847
0.028756013315230463667
0.028837942314853742126
0.028910731092958961985
0.02897161406849153506
0.029019596404736280881
0.029054653176959963773
0.029077574236667402818
0.029091449369286315196
0.029097053037236801643
0.02909888685964379107
0.029098432170361492738
0.02909365504419676729
0.029077319941746712639
0.029037403268127624095
0.028995753987902227883
0.028960113752797996683
0.028932405115189744477
0.02891362952468969072
0.028903325717945429346
0.028898773231839088721
0.028898621602929455698
0.028901552474502992945
0.028915359368264254014
0.02896309489416289823
0.029039073739539962571
0.029107692331755849469
0.029168235658490863221
0.029219566531047177355
0.029262076005263936568
0.029296040072728790626
0.029321060105782250499
0.029339223883110963909
0.029351646853828548128
0.029359354601482045427
0.029364007643128416103
0.029366786006416581434
0.029367506220360866526
0.029364881911513322083
0.029352897181729238618
0.029331840631835359723
0.029310124005588637092
0.02928869080994566873
0.029268354774339703367
0.029249907586784081731
0.029233758513477727664
0.029219509103049632476
0.029207915924357150811
0.029199558787206536525
0.029194087651229268937
0.029190994069617816342
0.029189508050685812612
0.029189151870072722189
0.029189578917269008024
0.029192220138068405294
0.029200955083220889175
0.029227596141397103879
0.029279589048857544709
0.029333982408360780719
0.029387210721288331561
0.029438226433403210519
0.029485390180055970344
0.029527245083541941301
0.029562583931649028673
0.029590769668012068677
0.029612601461076568099
0.029628903420001739821
0.029639293213626769635
0.029645550458407592814
0.029647892346212102732
0.029647860870629764302
0.029645963107606986692
0.029642378988542335272
0.029636093781017489035
0.029622514340380275144
0.029591381919065920525
0.029562121655074838356
0.029529349052123732289
0.029501448161265500514
0.029470103709185766633
0.029443413820301727463
0.02941327887509750591
0.029388485706338833559
0.029360815849016640156
0.029338568848183615989
0.029313868764584326276
0.029294269197829410356
0.029272587706430246851
0.029255346153525124686
0.02923661110226874818
3.4671888027673504592e-05
5.4493375720671068541e-05
7.4748143849075930839e-05
9.4499742192176523141e-05
0.0001169556271293764046
0.0001403516273386142823
0.00016083119406680351283
0.00018599902699222971921
0.00022838157182728140225
0.00028564323821453699304
0.00033825489505987074755
0.00037297308732382251136
0.0003921147101084436655
0.00040461196353328818297
0.00042357209931474001496
0.00046873224915627484648
0.0005601321457673364302
0.00063982328635245257643
0.00068345128535789027076
0.00070198389552727439699
0.00072961510569339996842
0.00079314275876334115571
0.00084429844244948660734
0.00087592117035333125902
0.0009282788915614866845
0.001024643257999572005
0.0011380349919383498259
0.0012259982339244369573
0.001270782436815912032
0.001292605615866017528
0.0013268018100735519231
0.001407457356248237269
0.0015032485100734435494
0.001583488689733526019
0.0016595504982108168733
0.0017560083410551256388
0.0018791365143253843661
0.0020064825757206625201
0.0021053670263532992327
0.0021610624173263441074
0.0021874844870645566118
0.0022160410146018398939
0.0022814024273692459777
0.002410305462581434268
0.0025417801959637183369
0.0026560412379665813802
0.0027447408588678538603
0.0028021251762786439539
0.0028343873183506165456
0.0028666836521765264034
0.002931114278544511096
0.0030522242215381138915
0.0032265670561692941058
0.0034212525820937291811
0.0035920386696700343579
0.00371066737081647861
0.0037792337310071787322
0.0038281174817586705213
0.0038968839302738716816
0.0040060749600755217806
0.0041467054325833654915
0.0042902779616267082766
0.0044071408938408246359
0.0044805420772964033374
0.0045157951417862680216
0.0045390528202768733526
0.0045826654334982577788
0.0046853531314642662964
0.0048162600332064776573
0.0049345879399706809795
0.0050365575438770073327
0.0051400741119524522016
0.0052683435925191882121
0.005430889560977313589
0.0056185287105417220516
0.0058091163491786291725
0.0059781069553029621277
0.0061144022795399889311
0.0062221017397874524985
0.006313713522604816504
0.0064044039639463293603
0.0065085025420824694012
0.0066354549969480248334
0.0067868334825242071506
0.0069469866912642043444
0.0070855250137398500393
0.0071810742905673938946
0.0072372434337107651933
0.0072767613595599665161
0.0073249228853696597349
0.0074027279874624993608
0.0075234798853232752111
0.0076858354815201113466
0.00787368729315930313
0.0080641482276002530299
0.008242544583629086985
0.008403287019764251603
0.0085477434427694842789
0.0086800987557713715076
0.0088078188831033805972
0.0089412651402019684144
0.0090874731705153609373
0.0092467583127100270307
0.0094120487882226842868
0.0095717134417745101255
0.0097122814760217095892
0.0098221613131171028183
0.0098964260248875987602
0.0099400431659402797152
0.0099709376627911423113
0.010015928276385248352
0.01010983281998303375
0.010297285333558000436
0.010567916723236788282
0.010896474628128342485
0.011235790724642742353
0.011533444484777239519
0.011752986767823488806
0.011884765763922529661
0.011946377680292018242
0.011972489614672647204
0.012000961113115535261
0.012065048440963210483
0.012179878497284028077
0.012317109823461298845
0.012459833152359966676
0.012595822946545289639
0.012716316164045594894
0.012813305721009284055
0.01288080954283325405
0.012917352971895446068
0.012932547930002013734
0.012940343575361322806
0.012953520389771494212
0.012996662175939728903
0.013160930196340814638
0.013549215346276833466
0.013893547786295545182
0.014146971071230873135
0.014324576784881481312
0.01445846496395853352
0.014581806108883694703
0.014715279878179917186
0.014866333424962274376
0.01502948026284954032
0.015192194969368135252
0.0153417684758425793
0.015467839316738547437
0.015563099378999873529
0.015626607846158744458
0.015661076793084975634
0.015676110867686249284
0.015682118417628423263
0.015690641892050164602
0.015712081729454985268
0.015774496631226847532
0.015866656394456543633
0.015950778078502272916
0.016021804681506400525
0.016080086604752356211
0.016138845784075393774
0.016217627253537564291
0.01634485808083926961
0.0165386918650462858
0.016808572376121284214
0.017145557153551357898
0.017529413779365118214
0.017930370247652028387
0.018327103652706091402
0.018705575834845451777
0.019054742136567531102
0.019356319371047710221
0.019590642550359974733
0.019736966757699706682
0.019796944354407156746
0.019802940067975206839
0.019773522126354182299
0.019625195674113606742
0.01943351099415122768
0.019346687567073202196
0.019333251203790258188
0.019352854052458262624
0.019471256107392684309
0.01988343408839848836
0.020397163439165966886
0.02079320814078434998
0.021091661559208933763
0.021307152318837990074
0.021460845609969133457
0.023676202293179057778
0.023547265965694473555
0.023484493549767285897
0.02346665174639848625
0.023469699252483190721
0.023512019257316198184
0.023700181037342765017
0.024284270272426945747
0.024994978210530243573
0.0255858575339169593
0.026049108236414566381
0.026388216138312985126
0.026629765856483630232
0.026800761404248987785
0.026924449582626932415
0.027011819630390256769
0.027064837901858550956
0.027087755033171314473
0.027089981523116309775
0.027081509875678342475
0.027038752496968208872
0.026886742278332331074
0.02652029534729550414
0.026152224968435673624
0.02584024887411269511
0.025593129656533902816
0.025420140578132893044
0.025323346511118068058
0.025288056294309919914
0.025288908099132024337
0.025319187353273039237
0.025460607856689819462
0.025961799007218667318
0.026747702439859133428
0.027414102597692974195
0.027960209602170323778
0.028400776336878697653
0.028759041835417751415
0.029045734843393896524
0.029269991981035196199
0.029429924524985988377
0.029527862851844756398
0.029571132293600116414
0.029577788182037680759
0.02956616604578583829
0.029492373306832311841
0.029196107332194534689
0.028598308898465891331
0.028115244960891128123
0.027798805236888851633
0.027640355909400993878
0.027595833657193383215
0.027603000431424010164
0.027688401325549713561
0.028056270881687602609
0.028707445677280563068
0.029233872348827356913
0.029629202293446794958
0.02992351692450443898
0.030140789618188619514
0.030315053724149387815
0.03046793204520982859
0.03061807596236312129
0.030767134624475403482
0.030913013125386933078
0.031046136737646938542
0.031149482046746845149
0.031214927358462256357
0.03123952194271597399
0.031238924349882100234
0.031212082432783668645
0.031071997051070578827
0.030543581782318220824
0.029693530900562880442
0.029042697845211240537
0.028638913533263424954
0.028455331110671652772
0.028419903501113560201
0.028445323661360648326
0.028616232424683810814
0.029287791929670198982
0.030560100971344431736
0.031640785218686268143
0.032499889555448420453
0.033197544785365656894
0.033827430554582489652
0.034441707195454654422
0.035050645607228272937
0.03559498061231358701
0.036002902002005766902
0.036225511009804763074
0.036286377831849618569
0.036265203336580231763
0.036065263108327735853
0.035221979166097878988
0.033963729712482140788
0.033132680512570088227
0.032725613430795573444
0.032614023438429264046
0.032624830312320843295
0.032769676049958069985
0.033310744089189089912
0.033913405596533122144
0.034298733726798633081
0.034524518985319635478
0.03465468433410412441
0.034735913542027319068
0.034793334692814953391
0.034830032777263195132
0.034847538928665440505
0.034849110602500205092
0.034824296086300603192
0.03469139106169537301
0.034194639755700924344
0.033283956853913658491
0.03251318867616264513
0.031935634510757801574
0.03154780639207927645
0.031321476614432901264
0.031215823283059541265
0.031182671973466816184
0.031179595891480733905
0.031190976973754690194
0.031248822249592446421
0.031348838343611622193
0.031419185170372072868
0.031463085863705185508
0.031482294365710587758
0.03148732840850629322
0.031486159061301172146
0.031472915231418707727
0.031420191021821301802
0.031253791652340712215
0.031025271547721104681
0.030822753615761935841
0.030650224075302434645
0.030511321822146289517
0.030404264145073536807
0.030324891955183650577
0.03027302782233982914
0.030242883598881727114
0.030229441605919296632
0.030226986916735379407
0.030228469541020784594
0.030233624391218773264
0.030248746513508072836
0.030289371377252433115
0.030330770400224821987
0.030360244272616972172
0.030377965409909318123
0.030386592189300273836
0.030390299163628470974
0.030391252546283806929
0.030390603929577916786
0.030386628001817433953
0.030370696512807719009
0.030344212736307350775
0.030320399579629848941
0.030299358136218940835
0.030282849161590359721
0.030270996126208524202
0.030263547923849009463
0.03025857475571613539
0.030255885711541759264
0.030256970764098889415
0.030269668776253574882
0.030322727908247078948
0.030403580863502928378
0.030473740078233547274
0.030530649455843480999
0.030573813869304196367
0.030603530891860859786
0.030622263387057046397
0.030631332764457831069
0.030634379817594748624
0.030634581971544130874
0.030631306282911496819
0.030619356182775819136
0.030585893282505764723
0.030544479793965788328
0.030509144070226552198
0.030481419850217430362
0.030461415724874443822
0.030449748586785528592
0.03044377681166508115
0.030442734580306798214
0.03044403206135427517
0.030450930271100136448
0.03047559023955515034
0.030541405350788374679
0.030612853617384003929
0.030673669404119925652
0.03072361061628141668
0.030763572551641533981
0.030793079935134772679
0.030814096095785940832
0.030828412201578846846
0.030838086719102743294
0.030844351905515585144
0.030848837529093266208
0.030851665587463498325
0.030851984384707865222
0.030847301916679066569
0.030837390955208418553
0.030827378516385423035
0.030816913170274913558
0.030806350450299360005
0.030796224914196489858
0.03078721379201322314
0.03077892096780496245
0.030771159835711860142
0.030764846842162556911
0.030760181626696758012
0.030757270103462890781
0.030755612597026502769
0.030754733396601098561
0.030754562558138225786
0.030754815963437719811
0.030756593632103961661
0.030762916738093920577
0.03078238326754425061
0.03082144354344591719
0.030864668816471658996
0.030909985965489994442
0.030956167852915134064
0.031001605914252893664
0.031043520688184021716
0.031080538566374278642
0.031111116615308579553
0.031135188218064151211
0.031153762462925106008
0.031166379982653959202
0.031174343231334361581
0.031177911873103893864
0.03117847139453136171
0.031177165140941993926
0.031173635699792100889
0.031168650371080935946
0.03115807895720184087
0.031137922087089604795
0.031108044512210997201
0.031085039763247297034
0.031056300654255908356
0.03103452903080921102
0.031006895963182613124
0.030985735488588458247
0.030958773112811983907
0.030938988280280400184
0.030913349252671831063
0.030895204463015697727
0.030871396920971093392
0.030854500497968843226
0.030832221491051643725
0.030816108266951219852
0.030795177174275160242
3.3498237588828843041e-05
4.6317323369513807552e-05
7.3857544916142218961e-05
9.9460413133179901256e-05
0.00011411430749607992129
0.00013374383015239490221
0.00016256882788223943966
0.00019517841046588061175
0.0002305692295975503845
0.00027043083478252082997
0.00031523203951102648319
0.00036452571973261062473
0.00041459664458474412754
0.00045246599388847920636
0.00047369189094449151104
0.00049513673137411824774
0.00054252621916639303095
0.00063654406328278272369
0.00072510282231154300683
0.00077976405496906593066
0.00080212762490421802512
0.00081808973909370532544
0.0008550119975120750327
0.00094316059709718762759
0.0010064369604271172689
0.001053276150394011389
0.0011331163633382587697
0.0012404821424934165883
0.0013255225997489709575
0.0013727871106199657572
0.0014148024982990347904
0.0014802808837423553877
0.0015637373974498813226
0.001646573422873843064
0.0017266158849224371146
0.0018154660255290072483
0.0019154529156060545129
0.0020128596407582442958
0.0020932570840350760502
0.0021573929938053658557
0.0022245781552490827455
0.0023170291023624917104
0.0024437335560449084844
0.0025912471755463544441
0.0027300618418129030118
0.0028306985969576035564
0.0028838809037717277189
0.0029143890501301247462
0.0029681892212749896344
0.0030797290873430249736
0.0032134276774816285596
0.0033619813054165102219
0.003531808656905199937
0.0037114706773254341546
0.003869350143379776067
0.0039754520053134605878
0.0040285904155031269924
0.0040543947449631122584
0.0040851024947484498515
0.004152068573409233368
0.0043063447412083292326
0.0044882412858682635415
0.0046446117931194094361
0.0047532668568862294217
0.0048161554679253077912
0.0048499365097788241924
0.0048727093220906148377
0.0049032732951648843808
0.0049624473373405747836
0.0050680621852305695121
0.0052289451584331472778
0.0054406570843133312751
0.0056851428172569910477
0.0059327944208364740905
0.0061487318702558328362
0.0063090801663536789923
0.0064160314322568865256
0.0064933630528084497133
0.0065697387907436687743
0.0066653684833834292781
0.0067850145058079959839
0.0069238342117526980798
0.0070747588996629999156
0.0072296230028391248942
0.0073775543852965660627
0.0075054527926232492835
0.00760190393633561768
0.0076625352967252449016
0.00769350245534868981
0.0077134029797245725821
0.0077457402859453699032
0.0078242102730073422728
0.0080501393581742190092
0.0083594310988729190331
0.0086160645834276183841
0.0088059910785591929971
0.0089456627250861769224
0.0090653366580085437132
0.0091916693039581810754
0.0093349624128024177167
0.009492432054768041097
0.0096546662995220522419
0.009816612325287445151
0.0099739828285303547273
0.010119495424255239499
0.010244209745865234806
0.010340655695739617639
0.010406852291684596037
0.010455453704838106252
0.010516142092237012323
0.01062795578910679696
0.010817849878427042085
0.011084267796913767692
0.011397069373635800374
0.011706288932811944464
0.011965539159596768823
0.012147774453318447088
0.012256258774241100828
0.01231832913088289419
0.012371421272789992485
0.012448246794146388891
0.012564412874803917303
0.012716617084710680682
0.012888246255480030264
0.013057515909822389744
0.013206406830418885093
0.013325127686085709924
0.013410487029154325236
0.013464838859601218138
0.013493261883744741766
0.013505706966720458159
0.013512978620751032316
0.013525209007180702056
0.01355990321774874427
0.013682649546350268699
0.013990988619132928295
0.014288053912014953353
0.014525217877536284947
0.014712094696756118292
0.014873050284010846597
0.015037360546063445813
0.015223962480176302103
0.015436091341824512146
0.015662492371954529757
0.015885723127203543736
0.016086610242585418218
0.016254148055997182098
0.016382124844832930688
0.01647080879640243703
0.016524979899314701237
0.016550298948751800826
0.016557567476632319148
0.016556372376854078948
0.016547127911427685076
0.016536272129429947092
0.016533714507672270244
0.016541893594738239781
0.016594018158139999669
0.016796392560253340515
0.017101398341150580301
0.017325351350209673013
0.017483795721402510537
0.017617329645166469876
0.017769597205525896472
0.01797398162030753796
0.01824521594658663759
0.018585700247506917876
0.018985420376888391403
0.019432704049611466274
0.019901669795997493917
0.020350783483085003317
0.020732972089106887353
0.021003599303789796671
0.021143316325343046447
0.021178617574493189407
0.02116534504361847549
0.021048988385650918564
0.020742745406324505225
0.020540634047332410883
0.020474241870323130199
0.020477252961921290492
0.020556735644488628723
0.020912019180485515862
0.021474631667590258349
0.021880618677842661457
0.02214802995298007296
0.022324061857227548572
0.02244607771003433519
0.022546172581078865321
0.024886153475582636907
0.02474945240075001468
0.024687545814738792033
0.024671319771226229295
0.024677253223723671222
0.024736220665209029956
0.024986512064197229782
0.025593501409648337225
0.026179275963446997644
0.026680372417385109923
0.027104694317915019319
0.027463246832550154003
0.027774382872130350813
0.028044006157684996799
0.028268239645139390387
0.028436961350200955223
0.028540200601006929931
0.028584549317395260143
0.028590772380782034784
0.028578733535692388279
0.02851065648402312247
0.028255627462505632924
0.027769567349761249686
0.02735411504779812833
0.027035122759719046326
0.026819844472119363371
0.02670236152403718255
0.026661609208866701021
0.026662440049520171742
0.026700942889831824623
0.02687967874268514662
0.027461093133796653232
0.028208561732040768333
0.0288240253944331698
0.029308601447142330204
0.029697493035233456932
0.030030833642926860888
0.030340271972246046078
0.030640927396342183125
0.0309184664727099566
0.031155053697634074034
0.031324177618624701736
0.031417102251909349853
0.031445717609740769793
0.03144135222057599377
0.031389037309340880877
0.031152519799761468899
0.030461447353806264671
0.029756106389115882793
0.029261635815662052906
0.028971257853159213674
0.028848734745130808627
0.028826424039291718981
0.028847250822197689768
0.028979891623212714752
0.029452060901440018509
0.030095419801093127588
0.030627475501280056885
0.031057730942985327383
0.031397425192263524185
0.031668579560072129819
0.031889750901314829756
0.032077917621083140709
0.032243296052851075362
0.032389497435863140451
0.032516145569676628557
0.032609818534394506562
0.032665804444712336074
0.032684104645643675957
0.032681049986163349108
0.032642150240144128526
0.032454911355613381974
0.031823164197309905532
0.031046685124168877518
0.030499168524907110944
0.030193225430270045906
0.030087400712689570809
0.03008544497165761139
0.030171220836944109833
0.03059101081914588835
0.031924150596185418838
0.033428766215209952672
0.034519638228618476639
0.035241081398360511734
0.0357065054609612062
0.036069313879119775657
0.036441810598274594624
0.036871990287000257214
0.037316781153943608118
0.037691358167343404217
0.037919754123357032882
0.037991717249848885873
0.037977996483118614535
0.037807958390619809952
0.03704599242548656246
0.035756458903108995218
0.034887200412985118481
0.034461828347132704431
0.034348432853365321038
0.034362513491459426018
0.034527045846819717778
0.035140176809530389301
0.035822038363531399918
0.036243500382487837952
0.036468653656474461777
0.036574179698736004884
0.036620552648335157053
0.036647373581557118882
0.036662305675114713333
0.036670060947797560036
0.036667764945762272577
0.036632598280673202285
0.036474186443832760929
0.035917350233292143213
0.035026521134098390076
0.034279105959117484037
0.033714388974488626594
0.033329280239983799516
0.033094930577721247411
0.032973120376075013005
0.032924292732396498451
0.032911712237882501109
0.032911836989079408522
0.032919142480718532884
0.032948515650358188578
0.032995982802598133876
0.033032541323161628
0.033057437000986754361
0.033068364377008128974
0.033070584816088280378
0.033068235872965992539
0.033052601278077679836
0.032992096218288129161
0.032811337723849316739
0.032597236346839586485
0.032419583994617938438