/*--------------------------------*- C++ -*----------------------------------*\
  =========                 |
  \\      /  F ield         | OpenFOAM: The Open Source CFD Toolbox
   \\    /   O peration     | Website:  https://openfoam.org
    \\  /    A nd           | Version:  12
     \\/     M anipulation  |
\*---------------------------------------------------------------------------*/
FoamFile
{
    format      ascii;
    class       volScalarField;
    location    "0.011";
    object      nut;
}
// * * * * * * * * * * * * * * * * * * * * * * * * * * * * * * * * * * * * * //

dimensions      [0 2 -1 0 0 0 0];

internalField   nonuniform List<scalar> 
75962
(
4.8146039478775469423e-07
5.7106580576982247336e-07
6.506456325090396997e-07
7.4011811325781520004e-07
8.4913405377694151912e-07
9.5467685349836214675e-07
1.038321366957250014e-06
1.11214042799296139e-06
1.2022116671588353819e-06
1.3152678445893476961e-06
1.4313825067949069976e-06
1.5264286679581063092e-06
1.5861088046952568281e-06
1.6171815184414700055e-06
1.6516939162038541022e-06
1.732435536774439974e-06
1.8679037631867412599e-06
1.9540859978005096439e-06
1.9938375516478728718e-06
2.0505208448050941341e-06
2.1592782231062815739e-06
2.2562248743109482448e-06
2.3091045403341180772e-06
2.3500468126103909268e-06
2.4291565800593304327e-06
2.5566304195141944497e-06
2.6920964256192506214e-06
2.7894591214770921344e-06
2.8375315934650296442e-06
2.8571322885124502246e-06
2.8797384386588019261e-06
2.9308823929051252645e-06
3.0459503600189193974e-06
3.1914052225040978349e-06
3.343792464834811795e-06
3.4816989021836355678e-06
3.5848431858657640459e-06
3.6463122066368503506e-06
3.6746122239158661442e-06
3.68412327073724513e-06
3.6896592621887556169e-06
3.7027924237619002928e-06
3.7405896458757463538e-06
3.8525444423284548387e-06
3.9969682567784919506e-06
4.1074599558231582224e-06
4.1755622396737429418e-06
4.2068285414738405925e-06
4.2182905954114316394e-06
4.2308882502602406628e-06
4.2624214974812142388e-06
4.3508561771522557469e-06
4.4776696040531705731e-06
4.5835056752465083729e-06
4.6499399868811837688e-06
4.68041767300489517e-06
4.7024511711899118647e-06
4.7499667117761382976e-06
4.830847074532559111e-06
4.9153991106864972641e-06
4.9880136142545841986e-06
5.0490001499308848401e-06
5.1097280253360517307e-06
5.1747913801515871941e-06
5.2353534334452350843e-06
5.28053168235821027e-06
5.3071410376597743686e-06
5.3222785846624018756e-06
5.3437153261619815858e-06
5.3882029266954430146e-06
5.4546983440749653561e-06
5.5290783921040517499e-06
5.5998544951556263695e-06
5.6637221055472727665e-06
5.7232025133392017683e-06
5.7835292353985087179e-06
5.8528941490762543103e-06
5.9305640367532342169e-06
6.0072390776335527296e-06
6.0756862321149018668e-06
6.1342301865932539199e-06
6.1835248817515851543e-06
6.2271097173464064577e-06
6.2709559379325946146e-06
6.3175815722193255698e-06
6.3627269870347967902e-06
6.3995397937917404625e-06
6.4232702881790676189e-06
6.435095403793538547e-06
6.4418162336140961423e-06
6.454494141846049987e-06
6.488000136482608919e-06
6.5817650133276808986e-06
6.717017356194391608e-06
6.8403944550181566578e-06
6.9379607088055678091e-06
7.0097522607308278996e-06
7.0637604987270343097e-06
7.1059446374929935515e-06
7.139711681776979864e-06
7.1674199193327993752e-06
7.1933614325321030135e-06
7.2235751793293022995e-06
7.2646166684531861127e-06
7.3199318685148291475e-06
7.3869412028057948466e-06
7.4564043548939304117e-06
7.5163172636896813099e-06
7.5576981707183563648e-06
7.5789849813949869523e-06
7.586430580502996412e-06
7.5912059043343362691e-06
7.6045492958274228456e-06
7.6423683378753074408e-06
7.7079333256245622904e-06
7.7843954660203557114e-06
7.8601363368435711457e-06
7.923942498730985473e-06
7.970269412265210414e-06
8.0005022090349085166e-06
8.0218145380339067428e-06
8.0431632824981001863e-06
8.0719733955473248617e-06
8.1120938025733472609e-06
8.1635231147108262904e-06
8.2224335846559093861e-06
8.2828442242453355116e-06
8.3380278064350690575e-06
8.3815023266542527984e-06
8.4090729845812576491e-06
8.4201484985789296816e-06
8.4197039997018640359e-06
8.4146442776879401201e-06
8.4094342102801448329e-06
8.4092871687780795288e-06
8.4331981151619696811e-06
8.5189560774009175304e-06
8.6085136881783465263e-06
8.6725031756780216624e-06
8.716329381027473986e-06
8.7482118674332009248e-06
8.7770703730470613568e-06
8.8095485069030325008e-06
8.8491900000468248858e-06
8.895611850322099955e-06
8.9457767672690838084e-06
8.9954200660113562094e-06
9.0400969211431403221e-06
9.0761794120747886537e-06
9.1011955244159766746e-06
9.1147228411519326269e-06
9.1185149009977830773e-06
9.1166948029206188153e-06
9.1145465106543271141e-06
9.1170490811506640504e-06
9.1348096121292816983e-06
9.1717344991723674934e-06
9.207213796052149472e-06
9.2344832390514184261e-06
9.2495559295183189802e-06
9.2552638329024503072e-06
9.2582199849644505635e-06
9.2673476742157800728e-06
9.2928752325423216767e-06
9.3417774636684777192e-06
9.4137862013006168646e-06
9.5036260740147649286e-06
9.6038400206119221928e-06
9.708371513096447812e-06
9.8138298937486897496e-06
9.9163645032839162593e-06
1.0008970351999907922e-05
1.008194423043624454e-05
1.0126377650363757631e-05
1.0141102122931793051e-05
1.0136658936866119971e-05
1.0122009675022514429e-05
1.0073867111677426496e-05
1.0004095283492626318e-05
9.9643532461518271237e-06
9.9483429696619736325e-06
9.9424855649422367335e-06
9.9471477210192969082e-06
9.9882735048916183954e-06
1.0068173083496566599e-05
1.0136727938610252711e-05
1.019553227188570075e-05
1.0246192451004761256e-05
1.0585523507577800512e-05
1.0566840813609379134e-05
1.0556445111700368458e-05
1.0549659440828271397e-05
1.0549663402408296129e-05
1.0573545339054165958e-05
1.0666168339584009811e-05
1.080116398686552668e-05
1.0920264846602132042e-05
1.1019202547868580956e-05
1.1096092598732547116e-05
1.1153813831974414557e-05
1.1196934477134878056e-05
1.1228654411818110654e-05
1.1250748135320726837e-05
1.1261909576245454607e-05
1.1263148669805274268e-05
1.1257127190499198791e-05
1.1247976359161838383e-05
1.12321683224893596e-05
1.1193881971030328459e-05
1.1108882170369935679e-05
1.1023905526636468559e-05
1.0953680760143343732e-05
1.089835903777186055e-05
1.0859263618558789646e-05
1.08350782563386689e-05
1.0822981927755201607e-05
1.0816756724214551396e-05
1.082007017597463156e-05
1.0857699031930699275e-05
1.0992190508280238581e-05
1.1157703001450545402e-05
1.1286750937072000646e-05
1.137999742591241772e-05
1.1443235091921057171e-05
1.1481942131007551053e-05
1.1503386846973330412e-05
1.1512528341943504593e-05
1.1513466881728483485e-05
1.150907187255357932e-05
1.1501625549283375248e-05
1.1492406597025660409e-05
1.1476530138865769312e-05
1.1436792860487891255e-05
1.1334413738699738921e-05
1.1220245347827391118e-05
1.1133126402458280431e-05
1.107603199001644231e-05
1.1046865521193773854e-05
1.1035437382916790891e-05
1.1032916761055658523e-05
1.1058021969176894586e-05
1.1171352410796747402e-05
1.1332901228866851145e-05
1.1454554630957018848e-05
1.1539405842376958269e-05
1.1593089421387528236e-05
1.1623828681640862329e-05
1.1639731542428028604e-05
1.1648073032664482866e-05
1.1653400208372769042e-05
1.1658436430538732711e-05
1.1663310010784385851e-05
1.1667673744712074926e-05
1.1668807602257086603e-05
1.1665900423046815436e-05
1.1658508283155261069e-05
1.1648761992819874899e-05
1.1630048533722959784e-05
1.1576828976185377324e-05
1.1429879656715860085e-05
1.1266697643951892322e-05
1.1145381034698152156e-05
1.107019513031325674e-05
1.1034761850440858726e-05
1.1023622998195374499e-05
1.1025023184800962543e-05
1.1067781981952641763e-05
1.1234963037816653758e-05
1.1463235635976548081e-05
1.1645369924998254674e-05
1.1788836649553998472e-05
1.1906071123633381369e-05
1.20097737299665642e-05
1.2105585443975772222e-05
1.2192362793942968286e-05
1.2261358479708658978e-05
1.2304909384529833373e-05
1.2319996080739752797e-05
1.2315320146999449413e-05
1.2298473585115330596e-05
1.2237306442305160556e-05
1.2046449981625579061e-05
1.1836482789136757937e-05
1.1702213104524699272e-05
1.1637760401309661288e-05
1.1618153507915022596e-05
1.1616845527108108483e-05
1.1655700131313565462e-05
1.1780458827955229495e-05
1.1882727057660525571e-05
1.1938716595650246752e-05
1.1961354380777833374e-05
1.196442065599843355e-05
1.1959358485468391721e-05
1.1952285773896271671e-05
1.1944926269881143892e-05
1.1936846790524616112e-05
1.1926512348389173922e-05
1.1906331063519369647e-05
1.1851951178378638887e-05
1.170850314841807491e-05
1.1544823766033178293e-05
1.1410191642090461003e-05
1.1307833699505041622e-05
1.123773856935767283e-05
1.1195134284527095086e-05
1.1172479749278895221e-05
1.1160962412142504796e-05
1.1153466983588147706e-05
1.1150420748662507122e-05
1.116169604823038223e-05
1.1180504492003107475e-05
1.11920910810195869e-05
1.1196717375164101532e-05
1.1195870721656457118e-05
1.1190755529613540277e-05
1.1183467928386514972e-05
1.1175082890209123471e-05
1.1163607949812280956e-05
1.1142289665210398028e-05
1.1097603266660825507e-05
1.1048486391115319773e-05
1.1004436516755489807e-05
1.0966390110040948603e-05
1.0934677781141565752e-05
1.0908838834774703646e-05
1.0889113281943581005e-05
1.0874205750084189043e-05
1.0863234628323211955e-05
1.0854932535923120224e-05
1.0847577150761586413e-05
1.0841062460199889654e-05
1.0837109196877559885e-05
1.0840368039018656964e-05
1.0845110367658101144e-05
1.0846779749903877517e-05
1.0845345062680753962e-05
1.084124972970763328e-05
1.0835291494635953291e-05
1.0828250218235854408e-05
1.0820703648769344044e-05
1.0812718174397276986e-05
1.0803068255401156178e-05
1.0789791807712198902e-05
1.0776345122581336127e-05
1.0763750197433561269e-05
1.0752332103211775644e-05
1.0742237398419883301e-05
1.0733148183323186871e-05
1.0724860605270489531e-05
1.0717086734625196507e-05
1.0709879530618365194e-05
1.0704438128913353704e-05
1.0705541001011162418e-05
1.0713337391523689333e-05
1.0719401839692251885e-05
1.0723232612406254175e-05
1.0724657513529326487e-05
1.0723682881105970146e-05
1.0720463638165519257e-05
1.0715576168099076067e-05
1.0709167660260173683e-05
1.0702069566895974006e-05
1.0694555616518742455e-05
1.0686253142934979671e-05
1.0675835406795724169e-05
1.0661098028983969721e-05
1.0646052869706008361e-05
1.0632121082388836672e-05
1.061965523422587846e-05
1.0608838097589758966e-05
1.0599583267687206819e-05
1.0591389819370777191e-05
1.0584008502405526701e-05
1.0577196400928666378e-05
1.0572377126726755138e-05
1.0573753936640085084e-05
1.0580262981009736241e-05
1.0585401552424300009e-05
1.0589047497158026272e-05
1.059100242521629888e-05
1.059134504600835075e-05
1.0590132088319813362e-05
1.0587297513079580466e-05
1.0583223323513644761e-05
1.057811425305757402e-05
1.0572157771886914218e-05
1.0565654728119660776e-05
1.0558818537248541736e-05
1.0551616986738639314e-05
1.0543819916006988438e-05
1.0534349035858025934e-05
1.0523258582367744864e-05
1.0512058728774766541e-05
1.0500918722319274308e-05
1.0489984329375677484e-05
1.0479397158046734252e-05
1.0469230099842707666e-05
1.0459411316881459902e-05
1.0450075687275836822e-05
1.0441326163913637289e-05
1.0433099237230522335e-05
1.0425303179453424934e-05
1.0417799764004751018e-05
1.0410503219594858141e-05
1.0403351359472754975e-05
1.0396598699917001423e-05
1.039093463986048625e-05
1.038845590135649473e-05
1.0390472729943342657e-05
1.039289880842646242e-05
1.039510152879523121e-05
1.0396896948468325236e-05
1.0397997889542071103e-05
1.0398150919232236288e-05
1.039714772069557016e-05
1.039488086604119803e-05
1.0391495005036823846e-05
1.0387138159536503973e-05
1.0381746194629028394e-05
1.0375633241891726651e-05
1.0368839015901112094e-05
1.0361634481385519492e-05
1.0354109049372933149e-05
1.0346294765358499823e-05
1.0338015201050582622e-05
1.0328470469685201169e-05
1.0315874340958988971e-05
1.0303614138750287547e-05
1.0290751473014286322e-05
1.0278747258629981239e-05
1.0266152676844223261e-05
1.0254378291494975294e-05
1.0242013417245594039e-05
1.0230587903723172791e-05
1.0218670913591988719e-05
1.0207706697495033747e-05
1.0196324691622592927e-05
1.0185838544257903756e-05
1.0174999077008409267e-05
1.0164939727224819147e-05
1.0154629196967964445e-05
5.0040413693031881413e-07
6.2690591642878613213e-07
7.3371785126876558719e-07
8.244086839109581487e-07
9.165078174438310913e-07
1.0033043741482830458e-06
1.0732662909497033625e-06
1.1533896476272360205e-06
1.2771726460689962438e-06
1.4273465191660131157e-06
1.5521648997708198675e-06
1.6287443701901211855e-06
1.668856959235929655e-06
1.6940657931723914415e-06
1.7320999642975893366e-06
1.8208327828351434766e-06
1.989075473008782048e-06
2.1243907479906651078e-06
2.1941005651754003249e-06
2.2221055710597402393e-06
2.2638434386617381952e-06
2.3587044640580705257e-06
2.4318915739827197792e-06
2.4752957273939436957e-06
2.5464325961011699983e-06
2.6734844200657785946e-06
2.8155775182418907588e-06
2.9203369934052324809e-06
2.971132475277276217e-06
2.9944550643559409555e-06
3.0316996632878737467e-06
3.1203200177123556484e-06
3.2225174100151431573e-06
3.3051085750012720311e-06
3.3812077115957200073e-06
3.4756678667341773826e-06
3.5929610903034299033e-06
3.7101324273236062437e-06
3.7978166152424344939e-06
3.8450509933155827035e-06
3.8657993271278885293e-06
3.8882490897328926937e-06
3.9424346061761694112e-06
4.0494678745661297968e-06
4.1555573278337450854e-06
4.2449839812001007673e-06
4.3122873192954514903e-06
4.3541075118672713048e-06
4.3760607987012295738e-06
4.3978660829392098863e-06
4.4439264058151259492e-06
4.5316573733055362337e-06
4.6560492310788286404e-06
4.7911321730134376381e-06
4.9058521015149711544e-06
4.9827411788328348089e-06
5.0250751280733868859e-06
5.0539585820506518471e-06
5.0956096535855853667e-06
5.1629190878453105467e-06
5.2491108330143572893e-06
5.3355013233427322152e-06
5.4039254727399469285e-06
5.4449579515892943733e-06
5.4625412927751436446e-06
5.4727877077716748804e-06
5.4951990254252576387e-06
5.5525679452270946943e-06
5.6256932420397318071e-06
5.690427534327676293e-06
5.7449296844705517281e-06
5.7996378369919034831e-06
5.8674797093823575792e-06
5.9531716272754454952e-06
6.0509363768949629228e-06
6.1484364495146596015e-06
6.232895680343509626e-06
6.2991708652865777745e-06
6.3499938595198419488e-06
6.3921293425718049368e-06
6.4334042786741846016e-06
6.4809756669021018456e-06
6.5393347902021541578e-06
6.6089152367488077764e-06
6.6817955836604357069e-06
6.7434064375923064727e-06
6.784008681208897188e-06
6.8057601942032501538e-06
6.8195777462822214851e-06
6.8373579046378248506e-06
6.8688027956597356107e-06
6.9197897792344067249e-06
6.9891993456135487287e-06
7.0691847781255705798e-06
7.1492069691447726097e-06
7.2228340752828536862e-06
7.2878588254960175821e-06
7.3451295238253097667e-06
7.3966389335119595561e-06
7.4456846862337847565e-06
7.496668487726325966e-06
7.5524656216351864282e-06
7.6130784693538477363e-06
7.6754881328840332224e-06
7.7349432295334285837e-06
7.7861234167983820273e-06
7.824607312019033533e-06
7.8486791914086912044e-06
7.8604948696970406498e-06
7.8672349570774292935e-06
7.8794896577996268128e-06
7.9108443678183408001e-06
7.9783042480668381758e-06
8.0768548507585993486e-06
8.1957548579065137061e-06
8.3166062699481423185e-06
8.420196023467852665e-06
8.4940571291767337834e-06
8.5356133521264842618e-06
8.5517679492342974694e-06
8.5551649748946227014e-06
8.5593844858204150386e-06
8.5762498095559101509e-06
8.6109830116814478607e-06
8.6533451821388841926e-06
8.6972930044333837381e-06
8.7385550872799400395e-06
8.7741565724153343532e-06
8.8014389793459623149e-06
8.8184657859260926876e-06
8.8248348191937443617e-06
8.8238930721386243364e-06
8.8204239285216493174e-06
8.8187864952954560916e-06
8.8273267737029303948e-06
8.8767696085576798732e-06
9.0005095018689669733e-06
9.107831102370856247e-06
9.184139850051116117e-06
9.2351939832623743739e-06
9.2718112614301936158e-06
9.3048101262022985046e-06
9.3408088715057168816e-06
9.382110069659986394e-06
9.4269008039083259011e-06
9.4712126005344244467e-06
9.5111143180068964746e-06
9.5434825140318663031e-06
9.5661782338746260154e-06
9.5790214645582794545e-06
9.5829222802836659439e-06
9.5808642396791141867e-06
9.5760466775228134106e-06
9.5719982798810889727e-06
9.5718853501324388994e-06
9.584219355175323623e-06
9.6055019659847122365e-06
9.6242447746298741404e-06
9.6389517608602397615e-06
9.6497630362616811751e-06
9.6606658259361989524e-06
9.677492594982892919e-06
9.7086341133110873227e-06
9.7592513159729770003e-06
9.8317246023349290232e-06
9.9228964336273536617e-06
1.0026392931616602851e-05
1.0133372784117544238e-05
1.0237753667830840437e-05
1.0335742130866798602e-05
1.0424519093070731918e-05
1.0499394341143705408e-05
1.0555421126479396467e-05
1.058741157518030262e-05
1.0596124178873148991e-05
1.0590370680172238023e-05
1.0575154199356845208e-05
1.0528101326365664958e-05
1.0469285908424533752e-05
1.0438620306662872806e-05
1.042774987624736009e-05
1.0425791512646460528e-05
1.0450375039971627802e-05
1.0553073325082197272e-05
1.068111309131075548e-05
1.0776822817561545537e-05
1.0846353530825192014e-05
1.0894051674241711278e-05
1.0925680783252709441e-05
1.1184605817187917497e-05
1.1146365324393325377e-05
1.1123769847302634399e-05
1.111182328560547158e-05
1.1104829397265054166e-05
1.1107119893448414143e-05
1.1143732894118892746e-05
1.1272383556362392798e-05
1.1428203807399421835e-05
1.1554467917092660806e-05
1.1650505231820418864e-05
1.171795193127600451e-05
1.1763288177737417868e-05
1.179280169269281851e-05
1.1811776287593378122e-05
1.1822711264480370699e-05
1.1826091767476713151e-05
1.1822883301933289921e-05
1.1815160277986539041e-05
1.1805110774807796867e-05
1.1787598143344773065e-05
1.1746255828402567601e-05
1.1657835105076166238e-05
1.1568616340295640818e-05
1.1491422951017872956e-05
1.1428402528216226748e-05
1.138180578988914039e-05
1.1352228196118628365e-05
1.1336438992402541809e-05
1.1328758952719263138e-05
1.132766886506170721e-05
1.1351373522209893651e-05
1.145459633326487538e-05
1.1618605494503424553e-05
1.1754283134798226346e-05
1.1862540520507915636e-05
1.1947333040065241384e-05
1.2014105388915316029e-05
1.2065457159596493369e-05
1.2103535998794748741e-05
1.2128131729415859489e-05
1.2139860757763822405e-05
1.2140317416692858669e-05
1.2133253703167864808e-05
1.2122447277779399533e-05
1.2098903870732197476e-05
1.2029622733238811805e-05
1.189756468850841124e-05
1.1788463442033477314e-05
1.1713797103454599781e-05
1.1672256268049486423e-05
1.165475435904043219e-05
1.1648174769678395444e-05
1.1658080219887560674e-05
1.1727121873319859929e-05
1.1854196121601781071e-05
1.1954085897049353658e-05
1.2026286488670336433e-05
1.2077477859863791737e-05
1.2112829720917686204e-05
1.2139361292084845556e-05
1.2161482574500167073e-05
1.2182946794440843363e-05
1.2204086920006472768e-05
1.2224491476949504043e-05
1.2242279277660184024e-05
1.2254124297885218527e-05
1.2258473638484905093e-05
1.225478762992997429e-05
1.2246162058246650028e-05
1.2232400898524034354e-05
1.2196445616134539438e-05
1.2083897954260882369e-05
1.1906287225666130819e-05
1.1766905850634764574e-05
1.1676708436944029283e-05
1.1631141937060203174e-05
1.1615828732074543413e-05
1.1612954036209550182e-05
1.1639701990484743762e-05
1.176731328575904379e-05
1.2011846118403579571e-05
1.2213900017823636651e-05
1.2370009794894767379e-05
1.2493394403737107364e-05
1.2602605449902932902e-05
1.2707687790886710799e-05
1.281063267911631061e-05
1.2900760567982212635e-05
1.2965463758444942838e-05
1.2996455627776963069e-05
1.2998338543379355008e-05
1.2985523425545857012e-05
1.2940686637520900862e-05
1.2779622138234529078e-05
1.2540567491659740165e-05
1.2377591768976220376e-05
1.2292780680145966299e-05
1.2263284155237033895e-05
1.225679999854693627e-05
1.2275449657163722424e-05
1.2367783357166945181e-05
1.2470497250970053737e-05
1.2532435526068380101e-05
1.2564887968730322976e-05
1.25798117685147425e-05
1.258580209744063685e-05
1.2587454973391215093e-05
1.2585347483185516308e-05
1.2579769746955389188e-05
1.2571319156873718567e-05
1.2558117521120880513e-05
1.2525428542520149333e-05
1.2426794583940927092e-05
1.2251688463355044152e-05
1.2100592021884096133e-05
1.1984308441025635656e-05
1.1903047138535900702e-05
1.1852038426344628521e-05
1.1823817022392860978e-05
1.1809332029618543045e-05
1.1800550779568602633e-05
1.1794509723868562955e-05
1.1797244960876138623e-05
1.1807905352882436375e-05
1.1812939040684723821e-05
1.1812981625085640922e-05
1.1808382842905726091e-05
1.1801127731850754262e-05
1.1792715286910620927e-05
1.1782048974797160502e-05
1.1764002683260522806e-05
1.1724664585714170237e-05
1.1673611438270884222e-05
1.1627370786486066002e-05
1.1586732970284829565e-05
1.1552422119616632371e-05
1.1524130119113532917e-05
1.1501087369374773234e-05
1.1483269788744369076e-05
1.1469582351436204482e-05
1.1459071632041784681e-05
1.1450650718725023428e-05
1.1442981214833698321e-05
1.143601137362364657e-05
1.1430929070900391683e-05
1.1430660748963228092e-05
1.1430528029037427852e-05
1.1428140463295711734e-05
1.142353843623065561e-05
1.1417227924664701273e-05
1.1409996909531625546e-05
1.1402253851828353823e-05
1.1394215731780180551e-05
1.1385559937968885977e-05
1.1374671997176810163e-05
1.1361817524276807657e-05
1.1349473097286412817e-05
1.1337657168604954686e-05
1.1326698482154088539e-05
1.1316619036653044841e-05
1.1307370612826925292e-05
1.1298591505001276175e-05
1.1290245239183075386e-05
1.128260878302300581e-05
1.1277140930030343284e-05
1.1279183823349051073e-05
1.1286369785382710697e-05
1.1291539371092525646e-05
1.129423088914612243e-05
1.1294364923933294511e-05
1.1292007085888968514e-05
1.1287620105144566203e-05
1.1281453405257316504e-05
1.1274181455236521827e-05
1.1266391018931858702e-05
1.1257966875522163464e-05
1.1247955816169648364e-05
1.1234002740793748351e-05
1.1218600278972542047e-05
1.1204324706690519121e-05
1.1191457189097942361e-05
1.1180016638173779085e-05
1.117011463930473223e-05
1.1161264654033443484e-05
1.1153324522609134661e-05
1.1145818335775632509e-05
1.1139341646867061779e-05
1.1136114079267298105e-05
1.1140392281030468989e-05
1.1145671769573057861e-05
1.1148991257177994919e-05
1.1150316669513368886e-05
1.1149819229877653759e-05
1.1147420237196205677e-05
1.1143481384314634128e-05
1.113833103038123667e-05
1.1132344096718499926e-05
1.112574496732358883e-05
1.111882882165772998e-05
1.1111618365286044793e-05
1.1103960992322068889e-05
1.1095409484191349605e-05
1.1085924662203275963e-05
1.1076429145529950932e-05
1.1066859855484447405e-05
1.1057280719942994197e-05
1.1047787644000461621e-05
1.1038501905339417842e-05
1.1029352197572157986e-05
1.1020304883751928299e-05
1.1011523807068756216e-05
1.1003044208039821351e-05
1.0994884465432076847e-05
1.0986954715866658868e-05
1.0979169594547862055e-05
1.0971516337906435558e-05
1.096394403664747732e-05
1.095664846441574822e-05
1.0950166740441283673e-05
1.0946025729425385396e-05
1.0945363731947436946e-05
1.0945431519751566343e-05
1.0945858968392426037e-05
1.094642756084596055e-05
1.0946852677024443179e-05
1.0946644873691814984e-05
1.0945564865955645224e-05
1.0943344654759356032e-05
1.0939976583353938375e-05
1.0935641477028501349e-05
1.0930261663548066463e-05
1.0924068160371234909e-05
1.0917108440315477594e-05
1.0909626636436560963e-05
1.0901823757275151935e-05
1.0893638009482922602e-05
1.0885204117319790501e-05
1.0875801741094674971e-05
1.0864734696972159196e-05
1.085198124826816066e-05
1.0840436233856656133e-05
1.0827900928920972251e-05
1.0816589759411235057e-05
1.0804266593335804824e-05
1.0793080520406744913e-05
1.0780893352768505377e-05
1.0769965198332188085e-05
1.0758027322521267427e-05
1.0747402558871139473e-05
1.0735801845679121799e-05
1.0725411728420715363e-05
1.0714094885864303545e-05
1.0703858074230383939e-05
1.0692793176901758213e-05
5.0465244773049878136e-07
5.9299563771667534928e-07
7.482997013855162176e-07
8.6776401077471811545e-07
9.2884857958384608883e-07
1.0048705459399819913e-06
1.1071086461632346612e-06
1.2122323243843225214e-06
1.3166459662341179003e-06
1.4249341989801273103e-06
1.5373765348541256766e-06
1.6520665082187649807e-06
1.7606567543807838421e-06
1.8380323235089529393e-06
1.8793450059391664577e-06
1.9200806836293674642e-06
2.0084713376078300131e-06
2.1740417270642005666e-06
2.3187386645261637317e-06
2.4028794242068338079e-06
2.4354009791868582882e-06
2.4578058810831481925e-06
2.5109124924959885756e-06
2.6353400619533719468e-06
2.7204170947745483118e-06
2.7810685797642041244e-06
2.8825456619612535107e-06
3.0139258617452358497e-06
3.1133592864622034639e-06
3.1661802580265007253e-06
3.2120353478332512088e-06
3.283241579026318499e-06
3.3721823559759824152e-06
3.4579448121952769791e-06
3.5385369908397770646e-06
3.6259207159596444476e-06
3.7218455595097210041e-06
3.812656857377253681e-06
3.8853542822391877727e-06
3.9416888567128283187e-06
3.9998150341221458805e-06
4.0792487148663191955e-06
4.1863904785599970209e-06
4.3078998214894452444e-06
4.4187128891398995588e-06
4.4962942283003691802e-06
4.5351842461959323061e-06
4.5559442884275403121e-06
4.5946115506932564359e-06
4.6768951360193405104e-06
4.7740175003385742163e-06
4.8797295817679358425e-06
4.9979862677434904689e-06
5.1199752167921062376e-06
5.224108934506180215e-06
5.2915734984948371557e-06
5.3231229790413101571e-06
5.3364362300861303154e-06
5.3528879715647809386e-06
5.3928370902314288102e-06
5.4882995379867043905e-06
5.5991212715299182884e-06
5.6918684327405807342e-06
5.7540629369028023496e-06
5.7879813742796893121e-06
5.8042120357897624905e-06
5.8137835912652488046e-06
5.8279393886686019395e-06
5.8589298541369864176e-06
5.9168379804226151904e-06
6.0058450037942154017e-06
6.1219689158092264797e-06
6.2536633657912743897e-06
6.3839845386868503531e-06
6.4946136493046492712e-06
6.5741851804889994397e-06
6.6250707166055510219e-06
6.6602493127462236767e-06
6.6946528497344275348e-06
6.7385190258585058248e-06
6.7940092539486337923e-06
6.8583941572564690136e-06
6.9279269448002069509e-06
6.9984790937752404098e-06
7.0648089286324234777e-06
7.1208367005501489678e-06
7.161469272808750747e-06
7.1849798586466124794e-06
7.1944852426205294974e-06
7.1987825477644945755e-06
7.2088481377019022559e-06
7.2402412039433069335e-06
7.3389316671682960675e-06
7.4733938911050357511e-06
7.5819750504376156732e-06
7.6597635836747249007e-06
7.7149101354109935694e-06
7.7609510973725190066e-06
7.8094156893754276447e-06
7.8645884049942920834e-06
7.9251378886266569447e-06
7.9870256493014625315e-06
8.0481420338088338569e-06
8.1067631909665329088e-06
8.1600153313254372966e-06
8.2044437764995767939e-06
8.2372513473521307684e-06
8.257837662580810051e-06
8.2713510648167952027e-06
8.2895623419515837961e-06
8.3277296052624841173e-06
8.3959643890679354849e-06
8.4928212667459980999e-06
8.6058434615062290762e-06
8.7157513625028995672e-06
8.8056154582108908554e-06
8.8662568073917305523e-06
8.8995751378431046296e-06
8.9158875367589577682e-06
8.9288770849681354272e-06
8.9503394837382610635e-06
8.9857613405889339147e-06
9.0337474254422265717e-06
9.0881905943428933876e-06
9.1413252634912976324e-06
9.1869125624418434243e-06
9.2217066621634612345e-06
9.2447730840023845773e-06
9.2570567770380233867e-06
9.2603881105856544157e-06
9.2582252326928769564e-06
9.254287602911011234e-06
9.252046497765184258e-06
9.2574734640485267003e-06
9.2928226618328207189e-06
9.3904221390594514075e-06
9.4830015440145640725e-06
9.5547422429552006422e-06
9.6093335940333452996e-06
9.6550472724192570092e-06
9.7014925497709187405e-06
9.7547235807200757883e-06
9.8156293712066874902e-06
9.8804854865284356572e-06
9.9437388388912123217e-06
9.9994670019574468474e-06
1.0044424396143145927e-05
1.0076887983842679365e-05
1.0097111331108764095e-05
1.0106680081466276602e-05
1.0107397292929845575e-05
1.0102597465368887155e-05
1.0095218932844906884e-05
1.0085393036894260723e-05
1.0075084279401451837e-05
1.0067310565009048265e-05
1.0062808950077151246e-05
1.0071653199137037878e-05
1.0125846919540312308e-05
1.0210277075514067951e-05
1.026977924293959353e-05
1.0309469340192106533e-05
1.034157906592178105e-05
1.0378963264885793816e-05
1.0431234205607919419e-05
1.0502348381896483865e-05
1.0592531094310192089e-05
1.0698398209372263879e-05
1.0816173250870229834e-05
1.093830783838616635e-05
1.1053360055989481405e-05
1.1148922550183662105e-05
1.1213659014968502207e-05
1.1243082672210523911e-05
1.1244652049878496949e-05
1.12333233545124544e-05
1.1194625382470913365e-05
1.1105175744714162374e-05
1.1043267871200196053e-05
1.1017751316496065479e-05
1.1010911328776395814e-05
1.1024600474807802722e-05
1.1111741648849651279e-05
1.1252405636697218811e-05
1.135038736528170834e-05
1.1411606885824846216e-05
1.1448912247724396808e-05
1.1472186956268770909e-05
1.1489754916609226778e-05
1.1765023754456402946e-05
1.1724520348317741384e-05
1.170171762088623796e-05
1.1689749700285827398e-05
1.1683038196141307813e-05
1.1688867286342048137e-05
1.173969838589300649e-05
1.1873187892871737306e-05
1.1999956460545997772e-05
1.2105846564442975495e-05
1.2193260297488167193e-05
1.2265122638439725992e-05
1.2325840134858603319e-05
1.2376923747102317228e-05
1.2417679237672556538e-05
1.2446034936877017519e-05
1.2459949991925249339e-05
1.2460969412613853461e-05
1.2453673228494322242e-05
1.2442406286409026932e-05
1.2418949591903350276e-05
1.2354697043599139464e-05
1.2239468129421905617e-05
1.2139133577654813743e-05
1.2059766399337607757e-05
1.2003315372026841825e-05
1.1968680995557313008e-05
1.1951240940253239015e-05
1.1943129336150996918e-05
1.1943451633021910486e-05
1.1975039645098776154e-05
1.2095454726045057019e-05
1.2250452426809245823e-05
1.237477579105002115e-05
1.246969805588148395e-05
1.2543439839856885038e-05
1.2604882959828097447e-05
1.2660860535146274832e-05
1.2714603158132250656e-05
1.2763188875717740596e-05
1.2803032336684273503e-05
1.2828822492683945812e-05
1.2838916860696566625e-05
1.2835844451826613932e-05
1.282604222008520807e-05
1.2806469577355012878e-05
1.2749271836103329511e-05
1.2598313893925788842e-05
1.2442956293145884355e-05
1.2330571090222113318e-05
1.2260718841488778071e-05
1.2226270770243833469e-05
1.2213056791765224463e-05
1.2208985368264194433e-05
1.2228525771397924532e-05
1.2319183841252093813e-05
1.2444362715014353163e-05