/*--------------------------------*- C++ -*----------------------------------*\
  =========                 |
  \\      /  F ield         | OpenFOAM: The Open Source CFD Toolbox
   \\    /   O peration     | Website:  https://openfoam.org
    \\  /    A nd           | Version:  12
     \\/     M anipulation  |
\*---------------------------------------------------------------------------*/
FoamFile
{
    format      ascii;
    class       volScalarField;
    location    "0.011";
    object      p_0;
}
// * * * * * * * * * * * * * * * * * * * * * * * * * * * * * * * * * * * * * //

dimensions      [1 -1 -2 0 0 0 0];

internalField   nonuniform List<scalar> 
75962
(
100754.37746625805448
100649.10801156143134
100923.97251193592092
100925.73713523508923
101060.93709873832995
101163.60268579980766
101139.23481174079643
101130.14253276787349
101112.17201187666797
101071.3371207096643
100992.11893135072023
100980.3234270427929
101102.12666407416691
101257.55840440874454
101269.40224964139634
101154.57470020279288
101063.23941286247282
101054.03585533266596
101100.37334482386359
101175.4640645202453
101247.82953025962343
101253.80544715285941
101183.39108410410699
101111.61495767548331
101095.49464006637572
101091.47359492871328
101060.70403627668566
101044.60400452290196
101056.68370485669584
101074.41390322182269
101101.02162494439108
101157.69665700350015
101195.34113920111849
101182.14993628242519
101150.67351146810688
101148.92172272023163
101170.2551576228725
101185.50079427212768
101184.3920201058354
101174.62781332941086
101167.93221196263039
101175.55149994176463
101199.64930451053078
101230.83440112684912
101252.89760262203345
101247.77061400891398
101208.58040427381638
101156.48275616008323
101133.98604002167122
101159.77673549781321
101203.39638104407641
101226.26792748481967
101223.35156060273584
101210.9501515483571
101200.87429667069227
101197.93894483766053
101195.70818692129978
101177.0660762538173
101130.47437031513255
101070.52151194006728
101033.12869543414854
101042.07293843422667
101088.90817459645041
101133.1938206586201
101140.27306302181387
101112.58781071149861
101086.49954558907484
101088.29576520631963
101112.43181043579534
101127.56487488278071
101114.29769603295426
101083.37063212209614
101059.89257397073379
101053.04443947547406
101045.98566973055131
101011.9228122842178
100947.55927478175727
100875.79349469028239
100828.41342314719805
100815.80975801675231
100830.97685561121034
100861.50045448035235
100893.69491047240444
100912.93790299652028
100907.47646420009551
100885.41677689626522
100870.54270444283611
100877.33969479535881
100896.27682229460333
100906.04807992119459
100900.64102224848466
100889.92750699486351
100877.53322194059729
100856.27008621732239
100819.22861012379872
100775.76267158461269
100746.37099755588861
100746.44364391129056
100772.64991526592348
100811.62523470562883
100850.85763861463056
100884.29357431718381
100914.93223668177961
100948.22348855900054
100982.66336784658779
101007.28065059706569
101010.28156504328945
100992.83802731479227
100972.3914416362677
100969.52634554445103
100985.71045897033764
101009.03688609604433
101024.40693431763793
101029.93718385722605
101034.09255523221509
101042.48993878642796
101051.60837285246816
101051.24646239525464
101035.38899854221381
101005.82576575802523
100972.35452220603474
100946.29003316363378
100936.84607556622359
100944.60670475960069
100961.06888866075315
100975.13003506671521
100980.56578620836081
100979.98339991588728
100984.13083898952755
101001.67558166827075
101033.30635552141757
101069.21423625900934
101094.13411057998019
101097.91098658058036
101081.74410616977548
101059.12916212803975
101045.93251451085962
101049.75600413623033
101063.76900238130474
101071.34042663191212
101057.93905468659068
101022.64876632578671
100977.41966772364685
100938.09388123657845
100914.42743357071595
100908.64223123132251
100919.16444939929352
100943.95132203851244
100979.18802429722564
101017.42454324956634
101048.87065948318923
101066.07224999992468
101067.77811723745253
101060.93096707263612
101052.893136274055
101049.71863192047749
101052.20878712799458
101058.07654367737996
101064.61956630437635
101070.63290295189654
101075.73306153669546
101078.85902555196662
101077.93356510232843
101070.8204298177734
101056.88948579828138
101038.64292932384706
101019.21060608113476
101002.46377449545253
100989.29832999726932
100978.95578004835988
100970.74277450852969
100965.72636943399266
100965.42622314713662
100971.22339791958802
100983.47215721373504
101002.08361448971846
101025.66123715176946
101052.45503693170031
101079.17181269277353
101102.91127770121966
101120.92126973727136
101130.37403856139281
101130.04250233688799
101121.06568796475767
101105.74560248295893
101088.6281376551924
101075.15576158050681
101068.8339401401754
100922.05243389983661
100913.28172567523143
100904.67815597890876
100900.15159781042894
100901.35794874216663
100906.63371579123486
100911.7323076633329
100912.75339045030705
100908.61671797925374
100901.4492350067012
100895.93337994866306
100896.04005578428041
100902.77126302891702
100914.21038982947357
100926.4184246420773
100936.55716688820394
100943.21737901751476
100946.75950221519452
100948.57676501816604
100950.05087637773249
100951.47010490510729
100952.58307898409839
100952.85547915306233
100952.42709125252441
100952.84421907951764
100956.32580898911692
100965.24460984929465
100980.87313991501287
101002.42045967878948
101026.4220935520716
101047.3461581349693
101059.48822484459379
101058.8074832137645
101044.28567798004951
101018.5475189267745
100987.30246099141368
100957.84394226084987
100936.62801438492897
100927.29697296593804
100929.37652941956185
100938.85406698478619
100950.65372357823071
100960.70275218738243
100967.57516480027698
100972.3519821534137
100977.22707645694027
100983.21215075541113
100989.07298775976233
100992.08466848642274
100989.48420517098566
100980.77833765756804
100968.03988845806452
100954.9922286531073
100945.45016985019902
100941.81856933720701
100944.55470228377089
100952.48832530977961
100963.95615485863527
100976.96771002811147
100989.66020216709876
101000.31132643258024
101006.80099609054741
101006.60584469341848
100997.44134018175828
100978.77090445175418
100952.61917256389279
100923.61726230291242
100897.64808319880103
100879.88847959082341
100871.55699808821373
100871.14778783163638
100873.99606039596256
100875.55239083328343
100873.37158568839368
100867.97812853351934
100862.82641584199155
100861.82678348466288
100866.98103639805049
100876.95701604957867
100887.37681458410225
100892.18227252126962
100886.76223038167518
100869.25542512867833
100841.61444250229397
100808.89708358733333
100777.56952152527811
100753.1304857077339
100738.48267991533794
100733.94110473772162
100736.94855221381295
100743.63426729777711
100750.07370832946617
100753.15196889359504
100751.96185183907801
100746.6167377379752
100738.47342966881115
100728.92365795485966
100719.32956709252903
100710.74878108299163
100704.07983391288144
100700.26825365576951
100700.40599269262748
100705.36911214316206
100716.18852424297074
100733.15568436007015
100755.89594787378155
100782.82074495064444
100811.55708932684502
100839.44413020352658
100863.35116770758759
100880.54177315441484
100889.36076079306076
100889.27613550092792
100881.10750659147743
100866.66602743910335
100848.01765969461121
100827.47258225256519
100807.39013965960476
100789.95185289892834
100777.040744846905
100770.11526351378416
100770.26348042662721
100777.67519267878379
100790.88495327009878
100807.25435219412611
100823.63355929331738
100836.9990062413126
100845.24640334655123
100847.73805324171553
100845.09736573623377
100839.23192815644143
100831.81131443438062
100823.66762785134779
100814.92901464253373
100805.55158643679169
100796.05124877065828
100787.60971592013084
100781.81398852638085
100780.41861182203866
100784.69138497879612
100794.67903018767538
100808.79563940077787
100824.25860173678666
100838.00312205363298
100847.65157687742612
100852.11678835569182
100851.69259736317326
100847.68807601147273
100842.02343541645678
100836.51371269855008
100832.51708572909411
100830.73863600699406
100831.37382276335848
100834.26260384016496
100839.20286738773575
100845.88651265205408
100853.75966092216549
100861.76483996663592
100868.38891218828212
100871.9039708229684
100870.68476442219981
100863.79353747270943
100851.14549892142531
100833.98093468676961
100814.70679551360081
100796.35116297870991
100781.93685634821304
100773.57308533482137
100771.96798854588997
100776.42334008107719
100784.82551768945996
100794.31379327483592
100802.19757948345796
100806.55750594224082
100806.50754282149137
100802.0833754997002
100793.85409616155084
100782.54303035598423
100768.99846228914976
100754.19436762352416
100739.33289797586622
100725.75942884883261
100714.69301604342763
100706.77709622164548
100701.91898016903724
100699.23955737978395
100697.11720695582335
100693.53827814773831
100686.79968188464409
100676.19619212235557
100662.638716751826
100648.39229984569829
100636.5755908810097
100630.26062058573007
100631.70863993940293
100641.81217455830483
100659.62624039247748
100682.28246929227316
100706.34123049132177
100728.14058297943848
100745.11040819228219
100756.13423708971823
100761.50457958306652
100762.81771396726253
100762.57947409866028
100763.20242329176108
100766.38620984434965
100772.76391051561222
100781.78787725095754
100792.05937664913654
100801.95608339497994
100810.21198947689845
100816.03072862920817
100819.18625710441847
100820.10636003909167
100819.55831758519344
100818.20722549052152
100816.41946344739699
100814.29183838743484
100811.76636494587001
100808.79239144774328
100805.51444781059399
100802.36680529083242
100800.06778869153641
100799.51364203249977
100801.46912581905781
100806.1784526307747
100813.18555501608353
100821.38435887380911
100829.15191150658939
100834.63111364192446
100836.18681336192822
100832.80596628856438
100824.31125137241906
100811.43153399710718
100795.73157842153159
100779.23412985727191
100763.81423185340827
100750.88518355510314
100741.41638406614948
100735.96358938921185
100734.56031351321144
100736.71505819213053
100741.50920644591679
100747.67937567205809
100753.87208832008764
100758.88336666625401
100761.75858030155359
100761.76056251731643
100758.51329704474483
100752.24353882909054
100743.77522678494279
100734.39307270712743
100725.42003091992228
101163.5802045466844
101195.71952439755842
101199.75338024446683
101163.93409256258747
101086.65132900683966
100903.973623172933
100869.80034199598595
100974.56984128133627
101044.58893837234064
101118.42642613494536
101138.77127381184255
101128.24382349369989
101204.23639047014876
101334.70794254803332
101350.40362416172866
101229.81284854747355
101134.21299942860787
101137.1489213884779
101168.61281923562638
101223.76709130786185
101295.96957528514031
101302.23265655747673
101206.56995472035487
101102.50115645227197
101081.58601361974434
101094.67136045568623
101071.89617230866861
101041.93295624795428
101034.82657321639999
101042.53429303207668
101087.27398195001297
101168.47263281092455
101229.03643365112657
101232.45631675959157
101211.98419328746968
101204.98500553049962
101211.63395055283036
101209.99238580168458
101197.28131003734597
101176.14798219209479
101150.91559636700549
101137.35057169146603
101154.92838382364425
101204.16137278624228
101252.16299555171281
101261.90423090741388
101227.70016035546723
101180.22203925529902
101155.96100606981781
101163.28326220437884
101181.15666460736247
101186.84194755884528
101179.31170072920213
101168.80955994362012
101163.67233557396685
101168.99754512614163
101178.37678416876588
101170.80255721938738
101133.71419772680383
101083.34353731684678
101051.75099929139833
101058.75530678142968
101098.37413087245659
101141.34712068302906
101154.88958028765046
101134.09773670995492
101107.24478954335791
101104.42454356877715
101124.65978349615762
101137.12313311544131
101120.35087593400385
101080.70040089600661
101043.83545036839496
101025.86450460173364
101014.60445233642531
100987.25846790714422
100935.43571403498936
100877.72385194586241
100838.4195045568049
100828.18938179362158
100842.29548838509072
100865.52777788251115
100884.13374452154676
100890.23697970503417
100881.13653064022947
100866.20710341489757
100862.43922923594073
100875.95158974285005
100896.50871744830511
100906.12445125865634
100901.23987930281146
100888.90197586982686
100872.65352727235586
100849.3404159466736
100816.95802021674172
100782.68131230544532
100762.14348982089723
100765.14569386726362
100790.98607118775544
100828.09693863397115
100862.97293057426577
100886.37164214505174
100902.2325220132916
100922.71836314116081
100953.58490000055463
100985.35627216473222
100999.9040079805709
100991.95024239484337
100976.0673927974276
100974.52677522260637
100995.68913669750327
101030.24067866434052
101058.33086514139723
101070.1144772447733
101068.31718521189759
101060.33071744641347
101049.15471686594537
101034.7719993009523
101015.8381184082391
100994.54645549504494
100974.15690583904507
100960.60846279055113
100959.0540957157209
100970.33309421790182
100986.20088016583759
100994.42270152691344
100990.07547716172121
100979.78016662392474
100977.29323067831865
100993.45646409141773
101027.88819789215631
101069.45355957438005
101100.02586403803434
101107.70416499394923
101094.57763603210333
101074.22175649656856
101063.53508103902277
101070.90978259389522
101088.40191489917925
101097.67332367561175
101082.9393990424287
101044.63459673883335
100996.42268684507872
100955.55202856409596
100932.93130809700233
100929.76099500180862
100943.57394487601414
100970.80802933400264
101006.08060613427369
101040.35056906371028
101063.02224367421877
101068.84471199590189
101059.83064325072337
101042.82539966558397
101027.25727763891337
101018.3362218238035
101018.06336466092034
101024.95361846929882
101034.93309770255291
101043.63045270096336
101047.89593932172284
101045.68606696029019
101036.69869481922069
101022.65817564234021
101006.1234259744233
100989.56938513132627
100973.44767064758344
100958.54849278394249
100945.66886908387823
100934.95436711068032
100928.51631185329461
100929.98067114916921
100941.56010615087871
100962.99877230840502
100991.04847816981783
101020.22505160288711
101045.19579925604921
101062.73893808282446
101073.82686432750779
101081.98191749528632
101090.36316198595159
101099.08531805347593
101104.94957794211223
101104.93996905049426
101098.907180937269
101089.07713861156662
101079.95012157870224
101074.53196634817868
101073.21140974544687
100952.89176946920634
100951.43268293055007
100943.36395077033376
100932.08149748072901
100922.16643000244221
100916.8059850136051
100916.2210069897119
100917.55703827376419
100917.08437785126443
100912.15760215638147
100903.68096978082031
100895.89027676994738
100893.15772560834012
100898.43820930163201
100911.08699188214086
100927.4096524577908
100942.933025081511
100954.28123932263406
100960.79273581085727
100963.48888643391547
100964.28569632857398
100964.63974226586288
100964.75267238245578
100964.27606674305571
100963.22702240185754
100962.89871538257285
100965.37394129906897
100972.78365515723999
100986.12321032267937
101004.19008660664258
101023.49927160036168
101039.37920012015093
101047.42519598774379
101044.97425388415286
101031.67247865880199
101010.10779997402278
100985.06534345727414
100962.39772053896741
100946.9114091185329
100940.93483950532391
100943.39964817730652
100950.33405377957388
100957.10527682950487
100960.65348245325731
100960.89982478514139
100960.43579306350148
100962.42543223535176
100968.26423002609226
100976.27951493154978
100982.55367602100887
100983.29387759036035
100977.10109278895834
100965.93999034397712
100953.91365126955498
100945.39219892273832
100943.33628636517096
100948.1978956535022
100958.41123569969204
100971.41938836542249
100984.65371745848097
100996.0389325562428
101003.9636604856496
101006.80585507392243
101002.92961894048494
100990.98215390941186
100971.07784306138637
100945.53984187402239
100918.94789246079745
100897.04924234098871
100884.03805325602298
100880.87887142608815
100884.91555621144653
100890.91974496518378
100893.86103026317141
100891.43289449042641
100884.87062348528707
100878.10693258480751
100875.21594214311335
100878.13718680791499
100885.39218470623018
100892.86596286739223
100894.93445528326265
100887.78024625989201
100870.36433910686173
100845.3066011457704
100817.02487149790977
100790.99520458378538
100771.31460671535751
100759.62002309877425
100755.33719474883401
100756.00441416574176
100758.2503558123135
100759.47484699817142
100758.12667826395773
100754.22579574843985
100748.34533081503469
100741.78346711173072
100735.42132384306751
100729.7565107299888
100725.05317598002148
100721.75736380084709
100720.44635401024425
100722.51102421092219
100729.15411184854747
100741.61705500743119
100760.13398229892482
100784.19132139546855
100811.81777275566128
100840.2069448276161
100866.56898425880354
100887.73657983199519
100901.4780727087782
100906.69200744500267
100903.16466298954037
100892.31013998966955
100876.13100454678352
100856.92192147024616
100836.97398900840199
100818.36569825233892
100802.84506261009665
100791.85260965659108
100786.33631692548806
100786.748652724782
100793.06928512161539
100804.26737750334723
100817.82963737355021
100830.82481092555099
100840.4677753339638
100845.18757462092617
100844.60416932479711
100839.6725502066256
100832.43128714364138
100824.51327922102064
100816.60086241307727
100808.96100663053221
100801.12965733493911
100793.4996370375884
100787.38438666203001
100784.62558309223095
100786.99747513467446
100795.62039596338582
100810.24985270427715
100828.84918708869372
100848.07825232480536
100864.25573527213419
100874.53717509133276
100877.70146222408221
100874.43882010474044
100866.78274105083256
100857.55226656296873
100849.57281306697405
100844.9534448228369
100844.6943711743952
100848.88871161024144
100856.7488821431034
100866.87116265490477
100877.53966619477433
100886.97972906094219
100893.45036544832692
100895.25051998313575
100891.21973958011949
100880.81516252500296
100864.4247927464894
100843.44208428051206
100820.14984620068572
100797.68563907926728
100779.34779148550297
100767.93415843043476
100764.83580296317814
100769.70635873168067
100780.56264738488244
100794.15950045522186
100806.78576524261734
100815.3412816485652
100818.09080636565341
100814.73438047763193
100806.24586082875612
100794.14115262434643
100779.98943826806499
100765.15991961274995
100750.65309198125033
100737.39377002320543
100726.30255454227154
100718.36127133500122
100714.13073496379366
100713.41789017796691
100715.10784496270935
100717.44528745893331
100718.2027458097582
100715.49700445424241
100708.40461181031424
100697.51971111977764
100685.06408794863091
100674.1459818528383
100667.93091967357032
100668.98629184086167
100678.2509960141906
100694.82397605798906
100716.08607627289894
100738.21038880106062
100757.74403878232988
100772.241104986766
100780.68463338831498
100783.81942302617244
100783.57398419904348
100782.41029098226863
100782.72007641079836
100786.1042701194674
100792.99600230737997
100802.71258741529891
100813.87732516461983
100824.9449692422786
100834.57919877114182
100841.89709449055954
100846.53727106552105
100848.59435422101524
100848.45709937097854
100846.57558312121546
100843.28337852396362
100838.86184665973997
100833.68434946557682
100828.32457536571019
100823.61604695423739
100820.52040515639237
100819.83571723410569
100822.06979925380438
100827.37561691809969
100835.33188200739096
100844.82010294192878
100854.22322554673883
100861.76167206498212
100865.78470174419635
100865.06624126361567
100859.07146708144865
100848.03532410493062
100832.9390657243639
100815.41608060592262
100797.51248540126835
100781.20005661195319
100767.91751703154296
100758.44423517950054
100752.98186941558379
100751.31631139208912
100752.86356512359635
100756.76584896976419
100761.97648346588539
100767.36827398963214
100771.99859795327939
100775.21427763281099
100776.61006756962161
100775.95440817605413
100773.30366515603964
100769.07824733052985
100763.95405792255769
100758.74562570051057
101318.29558125676704
101422.73974897318112
101274.95268520562968
101132.71090612030821
100999.52795491389406
100982.69098852628667
101110.08007370315318
101145.44049092866771
101112.14489823626354
101192.26499115875049
101318.98632351189735
101320.17942873066931
101301.69870363800146
101353.32046753317991
101373.73845855376567
101299.02024507721944
101245.35572245329968
101264.29383294588479
101271.01300435299345
101263.80680168498657
101311.07555433164816
101352.04288400594669
101282.1010249844403
101173.97944809253386
101148.09964209495229
101165.1963067229226
101136.76207171054557
101076.25418418407207
101044.76823969987163
101060.98728811023466
101117.23817825886363
101194.98253476821992
101258.61995448856032
101281.90252757562848
101276.55971833666263
101263.55862703283492
101248.88956690384657
101236.08744566567475
101221.35968109672831
101192.41292213034467
101150.30921242978366
101118.67028297377692
101127.12691415713925
101180.43726818075811
101240.39264224235376
101262.82664514158387
101241.55394007082214
101202.14685175671184
101168.31002147973049
101146.40528354878188
101133.45229727179685
101125.43086727907939
101123.22085996583337
101125.57338629192964
101131.86662887489365
101145.25029604861629
101164.80231289223593
101172.62502705700172
101153.37630082470423
101113.22508175604162
101076.95170698463335
101068.2127043196524
101093.41882498050109
101136.88118310735445
101164.54558169009397
101156.0258265692828
101123.84150767665415
101103.36602838734689
101108.24578321387526
101119.40984545621905
101109.07099989434937
101070.59569604112767
101025.39056781680847
100995.74401196523104
100982.25491803590558
100967.72541470565193
100941.43996141241223
100907.10014671609679
100877.15315138017468
100860.91404453630093
100859.15347445198859
100864.15203072727309
100866.85299602845043
100862.74514662600996
100853.87642572670302
100846.75416171933466
100849.2364762599027
100861.34611429796496
100876.82148069619143
100887.83792434832139
100890.91706406985759
100884.14413729352236
100869.13840685703326
100848.35757596706389
100825.4410282279423
100805.40173815946036
100795.26371792341524
100801.57397605921142
100823.27922970437794
100854.01831478663371
100882.63648811377061
100897.6399840896629
100901.97109439986525
100910.97155094068148
100935.112992232549
100967.80093899472558
100988.90841909413575
100987.00082491870853
100974.80324691066926
100975.88055974879535
101007.12831616515177
101054.8181270462519
101093.38817067861964
101105.65445258920954
101092.5763846510672
101066.04518344943062
101038.39046292362036
101017.38543984183343
101003.33848528603266
100994.9022654737928
100988.39650177730073
100984.98865664632467
100987.85825224412838
100998.6617517949926
101012.62169796359376
101018.51075204602967
101010.95542995567666
100996.38894511344552
100988.23961203002546
100998.11554646362492
101026.07875913422322
101062.25780775891326
101092.56444016651949
101106.569777724304
101103.98033854730602
101094.41928473120788
101090.25629692882649
101097.90234859933844
101110.28745803012862
101112.49201642400294
101092.91922854706354
101053.93242232532066
101009.44054192463227
100975.39779776637442
100960.01055358773738
100961.75116275345499
100976.84321395550796
101000.48477255090256
101027.04002482563374
101049.69167914903664
101061.70405366006889
101059.97537951265986
101046.18486166364164
101025.98507938405965
101006.66978495150397
100994.20207714891876
100992.1963638686284
101000.82359727771836
101015.41032044184976
101027.45883088890696
101029.73002881242428
101019.80655945626495
101000.36152776909876
100977.36917994747637
100956.62814491144673
100940.49049377218762
100927.39888131601037
100914.53991927203606
100901.40337123093195
100890.24097802536562
100886.69594804728695
100896.16991359852545
100921.18472959251085
100958.89525731175672
101001.21015003843058
101037.36012081969238
101059.58339694383903
101065.12581179883273
101060.09410610618943
101053.81240454535873
101053.57063521190139
101061.36257712912629
101073.20589757627749
101082.87546561702038
101087.73375756348833
101088.26302423971356
101085.97876868824824
101081.62017001393542
101074.84764422396256
100982.37135552926338
100984.24837588967057
100975.83573577363859
100959.98553967091721
100942.10832675606071
100927.71568315717741
100919.65151373154367
100917.31781422511267
100917.13995822022844
100914.90212171913299
100908.9226274703542
100901.23604022618383
100896.28346862462058
100898.67315547204635
100910.17601664096583
100928.43312037384021
100948.25901807822811
100964.55108020131593
100974.87638761627022
100979.17686605939525
100979.54342946979159
100978.14345128762943
100976.37203552687424
100974.2633129554597
100971.99252353436896
100970.82465865103586
100972.40427216864191
100978.1193192343635
100988.50253016717033
101002.1405594372045
101016.1641943869472
101026.83235940993472
101031.09085800891626
101027.37750818744826
101016.175388189964
100999.79670088014973
100982.09729652223177
100967.24935663137876
100958.0245467711793
100955.40031277213711
100957.55909652455011
100960.82222215188085
100961.66017950128298
100958.61483846430201
100953.13412458894891
100949.05906204982603
100949.71784604225832
100955.99369415354158
100965.46201435147668
100973.37562709698977
100975.6922390688851
100970.93096376054746
100961.03461747523397
100950.40231835907616
100943.62472391735355
100943.56726460643404
100950.47138502963935
100962.08491371253331
100975.33945088683686
100986.94895019104297
100995.10643707143026
100998.4795198495558
100996.72839621949242
100989.34785985684721
100975.87733078906604
100956.80483934370568
100934.38182113040239
100912.70343290826713
100896.62327070141328
100889.58609651187726
100891.90195224244962
100900.42582746811968
100909.56038695608731
100914.03849370261014
100911.46844748585136
100903.65238496115489
100894.56736628239742
100888.3624297054921
100886.98494496294006
100889.49700289357861
100892.13484030563268
100890.45976965395676
100881.3936849556485
100864.78426733917149
100842.93465338516398
100820.03739744256018
100800.06515625215252
100785.52866699955484
100777.23827800767322
100773.63087358495977
100772.47920883100596
100770.96694872366788
100767.35665637147031
100761.32846577302553
100753.84904664709757
100746.45891475639655
100740.58866231479624
100737.17100656153343
100736.21452605206287
100736.96991968227667
100738.98466740846925
100742.33754738146672
100747.83231481460098
100756.90623547688301
100770.77488612665911
100790.08899803522218
100814.0915908763418
100840.9928796881577
100867.85441707499558
100891.26005146835814
100908.48556532127259
100917.66487359383609
100918.21162951343285
100910.58645514666568
100896.64280719231465
100878.75029702759639
100859.4233897334052
100840.96006914375175
100824.95074205198034
100812.52343198042945
100804.54061328068201
100801.42543555529846
100802.98786965050385
100808.69640502816765
100817.52723846226581
100827.43397761722736
100835.88904464639199
100840.96173892538354
100841.73048720162478
100838.77344840971637
100833.31947809364647
100826.99421150659327
100820.67385291277606
100815.36246674817812
100810.20349885379255
100804.38124470959883
100798.09395769360708
100792.79349288194499
100790.81138361919147
100794.55236792610958
100805.51042973314179
100823.41546488832682
100845.96979739122617
100869.22157579057966
100888.80705394301913
100901.15199329465395
100904.5415652582742
100899.6301301564381
100889.05565134965582
100876.54200249879796
100865.90763639428769
100860.20187725719006
100860.96031782552018
100868.02623519040935
100879.85684472207504
100893.83753247051209
100906.89350798232772
100916.0667287382239
100919.06265387007443
100914.50813887997356
100902.16901328491804
100882.90531281486619
100858.52497705616406
100831.61253388792102
100805.19262742357387
100782.5650642842229
100766.84600714070257
100760.03489080329018
100762.50468709396955
100772.80532745042001
100787.89938051458739
100803.86253792082425
100816.90685152112565
100824.28362588043092
100824.65001159362146
100818.37255695481144
100807.11667431329261
100793.14541944906523
100778.33004550309852
100763.78671801114979
100750.38214306712325
100738.92703000748588
100730.2744416957139
100725.15594292338938
100724.20776107093843
100727.36655505813542
100733.57247887739504
100740.88138594354677
100747.00002927005698
100749.80063080537366
100748.17437403686927
100742.17800435748359
100733.67059969251568
100725.31809960356622
100720.21609246564913
100720.6426825546805
100727.56207600883499
100740.1046481498488
100756.6470309230499
100773.73542734554212
100788.3586481618986
100798.57026674141525
100803.6689652227069
100804.46959486785636
100802.75798464941909
100800.74324493284803
100800.61537054182554
100803.84427031935775
100810.78251664705749
100820.86309753698879
100832.89126665287768
100845.36039971686841
100856.85544219576695
100866.30580312001985
100872.99478466027358
100876.52479998451599
100876.86225462304719
100874.27961826993851
100869.20935422669572
100862.25338046623801
100854.34911497526627
100846.78697441870463
100841.0371415658301
100838.49671705040964
100840.12446207345056
100846.0628626615362
100855.66969476040686
100867.66999508226581
100880.22306462845881
100891.19061957485974
100898.58146161798504
100900.9343559925328
100897.50130767453811
100888.33699966353015
100874.23065384902293
100856.49614313981147
100836.84061119385296
100817.22711101135064
100799.59337354787567
100785.41315446926455
100775.42924153064087
100769.72154112765566
100767.91368769046676
100769.34714264939248
100773.13750441446609
100778.27604101141333
100783.71747787925415
100788.56023573991843
100792.28097304380208
100794.71731703302066
100795.89320727846643
100795.87005779059837
100794.79535247861349
100792.920754533945
100790.51759578379279
100787.8025645014568
101170.05217729663127
101009.82809161503974
101236.75875266520598
101292.59273224044591
101099.91708337111049
101030.01791393521125
101115.68758944018919
101124.83768114895793