/*--------------------------------*- C++ -*----------------------------------*\
  =========                 |
  \\      /  F ield         | OpenFOAM: The Open Source CFD Toolbox
   \\    /   O peration     | Website:  https://openfoam.org
    \\  /    A nd           | Version:  12
     \\/     M anipulation  |
\*---------------------------------------------------------------------------*/
FoamFile
{
    format      ascii;
    class       volScalarField;
    location    "0.011";
    object      pPrime2Mean;
}
// * * * * * * * * * * * * * * * * * * * * * * * * * * * * * * * * * * * * * //

dimensions      [2 -2 -4 0 0 0 0];

internalField   nonuniform List<scalar> 
75962
(
1523295.880199432373
1503488.2753639221191
1495222.220874786377
1489524.5345115661621
1485208.8854465484619
1481426.9575538635254
1477880.3742256164551
1474490.8409748077393
1471214.8883152008057
1468053.6196994781494
1464997.4238872528076
1462054.1188678741455
1459144.8478603363037
1456208.2294731140137
1453355.96142578125
1450781.845365524292
1448491.3665943145752
1446361.5655822753906
1444268.1268100738525
1442131.2211685180664
1439911.9680786132812
1437655.0915699005127
1435475.8582038879395
1433443.5475101470947
1431552.6821880340576
1429806.9767913818359
1428249.2791557312012
1426907.5213890075684
1425762.1867961883545
1424761.7713737487793
1423862.119966506958
1423015.8308143615723
1422178.8462219238281
1421356.7626762390137
1420570.9042301177979
1419799.2908096313477
1419002.1521396636963
1418172.6955699920654
1417322.9762325286865
1416473.4138011932373
1415636.028923034668
1414797.2526836395264
1413931.0255737304688
1413008.746898651123
1412014.2932357788086
1410949.166654586792
1409831.6211071014404
1408681.3601455688477
1407489.8661632537842
1406213.3055686950684
1404812.2402687072754
1403297.0929851531982
1401696.4095115661621
1400026.1224308013916
1398298.4448337554932
1396522.4427108764648
1394702.7098236083984
1392857.9429092407227
1391026.1703815460205
1389247.232967376709
1387542.1860980987549
1385898.1953811645508
1384280.8446617126465
1382662.2336845397949
1381046.459135055542
1379461.8033294677734
1377919.9641914367676
1376404.7625179290771
1374890.9821147918701
1373366.5564804077148
1371843.9528789520264
1370334.6892356872559
1368823.2920532226562
1367279.3623561859131
1365688.1750087738037
1364065.9438381195068
1362442.6549396514893
1360840.1464138031006
1359258.2332248687744
1357676.3695831298828
1356076.2831878662109
1354453.2395820617676
1352809.5532169342041
1351152.5521469116211
1349495.5431995391846
1347854.0304508209229
1346231.7629165649414
1344617.1508941650391
1342999.5347671508789
1341386.4971008300781
1339799.4613933563232
1338251.4331607818604
1336742.2523441314697
1335272.3713092803955
1333853.3111610412598
1332500.9168243408203
1331215.639274597168
1329977.4173793792725
1328761.4965152740479
1327547.319242477417
1326320.915864944458
1325078.0549869537354
1323819.8077430725098
1322545.1435413360596
1321249.321081161499
1319931.7879905700684
1318599.9012603759766
1317261.6418628692627
1315914.7304019927979
1314541.3798828125
1313116.9428558349609
1311628.0458068847656
1310076.4275398254395
1308472.1080551147461
1306819.7611923217773
1305116.2408809661865
1303360.6172389984131
1301557.7339820861816
1299715.947998046875
1297841.7389259338379
1295935.9272766113281
1293993.7663841247559
1292010.5488319396973
1289984.9716930389404
1287919.8314800262451
1285823.7721176147461
1283711.6906051635742
1281599.6821537017822
1279498.7902183532715
1277411.5892581939697
1275334.3978691101074
1273264.2889289855957
1271204.7769813537598
1269170.5012474060059
1267180.2163124084473
1265246.6923122406006
1263368.6956367492676
1261533.3623847961426
1259729.3813438415527
1257958.1336193084717
1256233.3665618896484
1254569.6649284362793
1252971.8432292938232
1251430.3653736114502
1249929.2036418914795
1248454.9053630828857
1246998.2845077514648
1245548.8857345581055
1244089.3979606628418
1242600.040901184082
1241067.1133728027344
1239487.3933925628662
1237867.1404972076416
1236215.6681270599365
1234541.6332378387451
1232847.42919921875
1231131.1668529510498
1229390.1012687683105
1227622.8710231781006
1225829.2272491455078
1224007.1648693084717
1222152.5548820495605
1220265.9579029083252
1218359.0631771087646
1216450.2191543579102
1214551.6213550567627
1212663.2237434387207
1210776.067813873291
1208883.3307113647461
1206987.9390544891357
1205097.8841609954834
1203215.8221549987793
1201337.6971588134766
1199458.8630485534668
1197578.7027187347412
1195700.8234806060791
1193831.7711315155029
1191979.4795627593994
1190151.1165828704834
1188352.2307281494141
1186584.4671440124512
1184847.0806655883789
1183140.1058788299561
1181467.8055591583252
1179837.2741737365723
1178252.0622253417969
1176707.2427997589111
1175191.143367767334
1116877.7021751403809
1115468.0875377655029
1114051.5125598907471
1112617.9316234588623
1111159.9445095062256
1109676.218599319458
1108170.1305694580078
1106646.2034435272217
1105108.2303199768066
1103560.3203678131104
1102007.5608081817627
1100455.1585884094238
1098906.5663471221924
1097362.4400177001953
1095821.5289936065674
1094280.7674255371094
1092735.6033096313477
1091181.1955375671387
1089613.6383857727051
1088031.2932319641113
1086434.6899547576904
1084824.426212310791
1083199.7350769042969
1081559.1150455474854
1079903.2141170501709
1078236.9135513305664
1076567.4830417633057
1074900.0519351959229
1073235.5548133850098
1071573.4973545074463
1069914.9070434570312
1068264.3650054931641
1066631.2481098175049
1065028.5955638885498
1063469.7040405273438
1061962.9557151794434
1060508.1406078338623
1059096.168062210083
1057712.1164073944092
1056339.4809856414795
1054966.3154964447021
1053589.4214897155762
1052213.9542999267578
1050848.0699825286865
1049497.5530281066895
1048162.147274017334
1046835.7352352142334
1045509.7863235473633
1044178.6032199859619
1042843.8711318969727
1041513.8934993743896
1040198.7966346740723
1038904.3707485198975
1037628.9021472930908
1036363.3868522644043
1035095.4605903625488
1033815.2452125549316
1032520.4530372619629
1031216.9823551177979
1029915.1154365539551
1028622.7668418884277
1027341.3605213165283
1026066.2898597717285
1024791.2356586456299
1023513.0990905761719
1022233.1779804229736
1020954.453311920166
1019677.9508838653564
1018400.0208625793457
1017113.5541210174561
1015812.2925262451172
1014494.4941844940186
1013163.623815536499
1011825.2996139526367
1010483.6286010742188
1009138.7913761138916
1007786.4366836547852
1006419.6090545654297
1005032.0098361968994
1003621.8205375671387
1002192.7826614379883
1000751.4283218383789
999302.7203483581543
997846.2613468170166
996377.76209449768066
994892.09229850769043
993386.65386962890625
991862.72175216674805
990324.03823280334473
988773.32813262939453
987210.05499267578125
985632.55957984924316
984041.79384994506836
982443.73025703430176
980847.67913818359375
979261.5445384979248
977687.24093627929688
976119.67392539978027
974549.96484565734863
972970.99104499816895
971381.67797660827637
969787.00696754455566
968194.6752815246582
966611.51653289794922
965041.00052452087402
963482.54460716247559
961932.96323585510254
960389.40623092651367
958851.00596809387207
957318.9404411315918
955795.15164566040039
954282.07487487792969
952783.08651924133301
951302.03903007507324
949841.60474014282227
948401.98468208312988
946981.01677513122559
945575.59997367858887
944183.64666175842285
942804.82079315185547
941439.63440704345703
940087.57382774353027
938746.10855674743652
937411.26502990722656
936079.13667678833008
934746.83674812316895
933412.58513450622559
932075.64755821228027
930736.62282943725586
929397.67358207702637
928062.11076164245605
926733.08706092834473
925412.45298385620117
924099.91904640197754
922793.18619155883789
921489.12845230102539
920184.37610054016113
918875.09260177612305
917556.31943321228027
916222.29292869567871
914868.29220390319824
913492.84809303283691
912098.68580436706543
910691.77424430847168
909279.08038139343262
907866.17364311218262
906455.80670547485352
905047.99209403991699
903640.88097381591797
902231.37062454223633
900815.12449264526367
899386.78815078735352
897941.26508140563965
896475.76120185852051
894991.1014289855957
893491.33926582336426
891981.87130355834961
890467.71759986877441
888953.11161804199219
887442.20456504821777
885940.02709007263184
884452.23177528381348
882983.56166648864746
881535.95073890686035
880107.80019569396973
878695.20135498046875
877293.95176696777344
875900.7172794342041
874513.13227462768555
873129.25788116455078
871747.56137275695801
870367.7093391418457
868991.25224304199219
867621.41955947875977
866262.21650314331055
864917.34177207946777
863589.58698272705078
862280.75075340270996
860991.94997406005859
859724.00495338439941
858477.71232604980469
857253.28528022766113
856049.48341369628906
854863.21627235412598
853689.99184799194336
852525.14080619812012
851365.13744354248047
850208.58903694152832
849056.55188369750977
847912.18400955200195
846779.51830101013184
845661.70328712463379
844559.88286399841309
843472.98614311218262
842398.62047004699707
841334.32880401611328
840277.92350387573242
839227.34133338928223
838180.30056953430176
837134.45814514160156
836087.95407104492188
835039.80225563049316
833989.99056816101074
832939.40838432312012
831889.68210601806641
830842.70078468322754
829799.87431907653809
828761.33916854858398
827725.65509223937988
826689.97107887268066
825650.36460113525391
824602.64401435852051
823543.68966674804688
822472.72815704345703
821391.49195861816406
820302.87111663818359
819209.05002784729004
818110.42169570922852
817005.69988632202148
815892.96188163757324
814770.77141571044922
813639.14916610717773
812500.12872505187988
811357.62631988525391
810216.68957328796387
809082.15518569946289
807957.18698310852051
806842.24934768676758
805735.01200103759766
804631.28461265563965
803526.91504096984863
802420.01656913757324
801312.47463798522949
800209.77469062805176
799119.14661407470703
798046.96086883544922
796996.72314834594727
795968.5873851776123
794960.28080368041992
793968.59648704528809
792990.60779762268066
792024.31608772277832
791068.89585494995117
790124.73256874084473
789193.06594276428223
788275.16088485717773
787371.64717102050781
786482.49481010437012
785607.48684310913086
784746.66955947875977
783900.50739288330078
783069.67689895629883
782254.73508262634277
781455.71933746337891
1538559.5904788970947
1513458.9222755432129
1502684.2830257415771
1494721.1494026184082
1488703.386173248291
1484083.4265270233154
1480284.8211059570312
1476790.1990032196045
1473401.4472503662109
1470064.3635082244873
1466713.5011653900146
1463420.3628673553467
1460184.7186737060547
1456934.2248096466064
1453744.4033832550049
1450836.6198844909668
1448279.715482711792
1445957.7734336853027
1443796.9035263061523
1441746.081995010376
1439707.691930770874
1437640.3079643249512
1435632.0476989746094
1433757.2187118530273
1431967.798397064209
1430220.0150203704834
1428574.491886138916
1427086.8615074157715
1425775.8859329223633
1424637.270881652832
1423647.7164154052734
1422752.6141147613525
1421914.5654125213623
1421129.3039970397949
1420400.2532482147217
1419698.5090732574463
1418981.5088958740234
1418228.7613315582275
1417434.2553596496582
1416599.9421157836914
1415741.1196346282959
1414865.6012020111084
1413954.5177707672119
1412970.5295848846436
1411883.5980167388916
1410702.9351787567139
1409471.4215488433838
1408219.4025459289551
1406935.7582759857178
1405586.7822971343994
1404150.8522777557373
1402630.1257266998291
1401046.2027893066406
1399409.2027339935303
1397721.0578880310059
1395977.7742576599121
1394180.2900714874268
1392340.6228637695312
1390498.0759868621826
1388698.5380573272705
1386969.164758682251
1385312.5727653503418
1383705.8127250671387
1382119.1554145812988
1380547.9699459075928
1379011.9011211395264
1377522.7193260192871
1376063.7388210296631
1374605.3289852142334
1373131.5875072479248
1371650.9282054901123
1370171.4996452331543
1368685.0876388549805
1367172.7654933929443
1365621.939432144165
1364041.0752410888672
1362452.8305683135986
1360873.3736591339111
1359300.9840431213379
1357721.1334857940674
1356118.3853645324707
1354491.3067989349365
1352851.919942855835
1351213.3736133575439
1349581.8664035797119
1347958.511302947998
1346340.1924343109131
1344720.9853649139404
1343099.3499603271484
1341486.9601287841797
1339904.7830982208252
1338363.2423343658447
1336860.8133010864258
1335396.1650466918945
1333975.9336929321289
1332609.854679107666
1331298.3157997131348
1330027.77756690979
1328777.5896453857422
1327526.8695220947266
1326259.6598243713379
1324972.5830364227295
1323674.2871017456055
1322369.9079742431641
1321054.3133811950684
1319719.0355548858643
1318363.3614482879639
1316994.5572509765625
1315616.3662738800049
1314216.8656234741211
1312773.6625690460205
1311266.5992946624756
1309691.1394882202148
1308056.5448589324951
1306374.2330017089844
1304654.5311412811279
1302906.0847930908203
1301131.8776264190674
1299327.7233467102051
1297486.3535404205322
1295601.3696765899658
1293668.4350166320801
1291686.3733024597168
1289658.1156005859375
1287591.1431827545166
1285497.5594730377197
1283393.5848941802979
1281294.7160568237305
1279209.3292961120605
1277136.8815326690674
1275071.796724319458
1273008.157299041748
1270949.5847358703613
1268909.7349224090576
1266905.5748977661133
1264951.2445697784424
1263049.3205108642578
1261189.4088039398193
1259360.1438465118408
1257562.6561374664307
1255810.6589221954346
1254121.7995491027832
1252502.5239372253418
1250942.4683208465576
1249420.0620918273926
1247916.9532279968262
1246423.8429718017578
1244934.4011402130127
1243436.6394882202148
1241915.3288497924805
1240359.9868202209473
1238769.7481117248535
1237152.6261100769043
1235518.4050140380859
1233872.893970489502
1232214.7866725921631
1230538.450798034668
1228837.7889270782471
1227109.9190082550049
1225354.862771987915
1223572.8674278259277
1221763.8061408996582
1219931.694766998291
1218087.7379245758057
1216244.2809524536133
1214407.882740020752
1212575.3984603881836
1210737.7365188598633
1208888.312801361084
1207029.2980766296387
1205168.2871150970459
1203309.2270317077637
1201450.2879104614258
1199586.6811065673828
1197715.8867855072021
1195839.6358737945557
1193964.8826427459717
1192103.7861728668213
1190270.5564804077148
1188474.2023830413818
1186715.2960815429688
1184988.5795440673828
1183288.2012748718262
1181612.9998569488525
1179968.378116607666
1178359.7369747161865
1176786.2486839294434
1175240.296199798584
1173713.3570308685303
1118433.2693157196045
1116994.874303817749
1115555.63796043396
1114108.6956176757812
1112646.1764678955078
1111163.0658359527588
1109659.4541015625
1108139.1611366271973
1106605.6637954711914
1105060.7387275695801
1103506.9761695861816
1101949.1392936706543
1100393.9120044708252
1098846.6887302398682
1097308.7080116271973
1095776.4733009338379
1094242.9541053771973
1092700.0894031524658
1091142.5745048522949
1089568.475980758667
1087979.9354782104492
1086380.8258304595947
1084773.6108665466309
1083157.8601913452148
1081530.8228664398193
1079890.6150054931641
1078238.9447803497314
1076580.5229358673096
1074919.2329902648926
1073256.3260898590088
1071593.066915512085
1069932.5487957000732
1068281.4047222137451
1066649.7207260131836
1065050.1288223266602
1063494.6398143768311
1061989.7982139587402
1060533.4140758514404
1059115.1270446777344
1057719.3736476898193
1056330.8123664855957
1054939.9879360198975
1053546.3617401123047
1052157.0462951660156
1050780.824047088623
1049422.8743152618408
1048081.5065517425537
1046748.7100772857666
1045414.09716796875
1044071.0353679656982
1042720.7420024871826
1041372.1696529388428
1040037.652099609375
1038725.8128261566162
1037436.4395332336426
1036159.805591583252
1034881.6867389678955
1033590.9810886383057
1032285.0687408447266
1030969.8250179290771
1029654.0887889862061
1028344.3612747192383
1027041.4309501647949
1025742.1766262054443
1024443.3460865020752
1023143.8770561218262
1021844.7166919708252
1020547.150707244873
1019250.3289489746094
1017949.9629383087158
1016639.1162414550781
1015312.1760272979736
1013968.7704582214355
1012614.1868095397949
1011254.9766616821289
1009894.3646926879883
1008530.8246726989746
1007159.2650108337402
1005773.2164669036865
1004367.9200782775879
1002942.9761600494385
1001502.5342063903809
1000052.3462238311768
998595.79442596435547
997130.86713981628418
995652.17740631103516
994154.55368041992188
992635.93022346496582
991097.86893653869629
989543.9673957824707
987976.90616416931152
986396.9617748260498
984803.2468433380127
983197.24082565307617
981584.82941246032715
979975.82432556152344
978379.19388580322266
976797.60392189025879
975225.76955032348633
973654.06789970397949
972074.32131195068359
970484.51119804382324
968889.1302318572998
967296.09222602844238
965712.40313339233398
964141.51440238952637
962582.68791961669922
961033.05070495605469
959490.84718132019043
957957.18718338012695
956435.06479072570801
954927.326904296875
953435.73932647705078
951961.91914749145508
950508.02220344543457
949075.47259330749512
947663.67343521118164
946269.42759704589844
944888.50018119812012
943518.14274978637695
942158.49672698974609
940811.07163619995117
939475.90210151672363
938150.24077606201172
936829.94566917419434
935511.4799976348877
934192.87213706970215
932873.23571968078613
931552.2763729095459
930230.58506393432617
928909.6453857421875
927591.68077278137207
926278.68019866943359
924971.54698944091797
923669.86443901062012
922372.40962219238281
921077.8262996673584
919784.21702575683594
918488.19190979003906
917184.17175674438477
915865.06400489807129
914524.45517921447754
913159.20548248291016
911770.83576393127441
910364.87434196472168
908948.65708923339844
907528.81953620910645
906109.79584884643555
904693.7684326171875
903281.01529502868652
901869.57794761657715
900454.7648754119873
899029.8511962890625
897588.23864936828613
896125.95207023620605
894643.05556869506836
893143.07757949829102
891631.34200668334961
890113.74522399902344
888596.40868949890137
887085.51194190979004
885586.9434814453125
884105.73142433166504
882645.08348655700684
881205.77343940734863
879786.25261306762695
878383.64296340942383
876994.76269912719727
875616.46421432495117
874245.28014373779297
872877.4172191619873
871509.8005485534668
870141.62711334228516
868775.02156448364258
867414.23624229431152
866064.21284484863281
864729.31109619140625
863412.59724426269531
862115.76347923278809
860839.3214225769043
859583.13840103149414
858346.6929874420166
857129.03482437133789
855928.27498245239258
854741.29081916809082
853564.14349937438965
852392.91689491271973
851224.67597579956055
850058.22469902038574
848894.76692962646484
847737.95051765441895
846592.84090423583984
845464.01346397399902
844353.72400283813477
843261.13943481445312
842182.96753120422363
841115.16156768798828
840054.32141304016113
838998.06941223144531
837944.92733192443848
836893.85928153991699
835843.92852973937988
834794.49292373657227
833745.57256126403809
832698.01684761047363
831653.25714683532715
830612.6251106262207
829576.54139137268066
828544.13590431213379
827513.41715240478516
826481.5591983795166
825445.07300758361816
824400.17984390258789
823343.92288398742676
822275.5491943359375
821196.93913650512695
820111.53660774230957
819022.25534248352051
817930.00251960754395
816833.51251602172852
815730.18097686767578
814617.48893165588379
813494.16253852844238
812360.76166343688965
811219.65580558776855
810074.73008918762207
808930.91148948669434
807793.27984619140625
806665.4600887298584
805547.83505058288574
804437.11219215393066
803328.04463958740234
802216.62884712219238
801102.61758041381836
799989.95054817199707
798885.08020401000977
797794.50129508972168
796722.95610427856445
795672.7659797668457
794643.98590660095215
793634.91443252563477
792642.6901798248291
791663.79484939575195
790694.80404853820801
789733.37593269348145
788779.03791427612305
787833.13606643676758
786897.94284057617188
785975.72565269470215
785068.33859634399414
784177.31396675109863
783303.91418266296387
782448.9463996887207
781612.29747772216797
780792.55039215087891
1515782.2086448669434
1500429.2281303405762
1493562.5957946777344
1487662.5169277191162
1482827.4039402008057
1478944.9463424682617
1475693.5947341918945
1472791.1690120697021
1470154.2935352325439
1467568.6257190704346
1464812.8066444396973
1461909.7831153869629
1458981.4299545288086
1456027.5609264373779
1453034.8144474029541
1450160.9835929870605
1447531.7576808929443
1445102.5603218078613
1442843.4289569854736
1440777.8418006896973
1438851.2563972473145
1436953.9189071655273
1435102.3540859222412
1433384.4740982055664
1431755.0593223571777
1430142.2022342681885
1428580.0551624298096
1427144.7349624633789
1425855.789867401123
1424690.6157741546631
1423627.1860237121582
1422636.920280456543
1421709.7801151275635
1420847.6884651184082
1420048.8278312683105
1419300.2590236663818
1418581.9416618347168
1417870.6114597320557
1417141.875431060791
1416375.3250675201416
1415570.6173419952393
1414737.6036777496338
1413855.6989974975586
1412877.002857208252
1411769.4999694824219
1410543.8587856292725
1409245.8852405548096
1407916.2651691436768
1406555.7259654998779
1405143.4369068145752
1403669.5089988708496
1402137.0483570098877
1400555.1046123504639
1398928.3894062042236
1397259.961088180542
1395539.6487827301025
1393757.0872554779053
1391918.2976627349854
1390058.0245094299316
1388229.5165367126465
1386468.8291397094727
1384783.9649047851562
1383157.0557518005371
1381558.0158882141113
1379970.2998676300049
1378407.9614524841309
1376894.2028503417969
1375432.5443935394287
1373996.0253925323486
1372556.0669555664062
1371107.5951118469238
1369655.4121685028076
1368198.9895439147949
1366729.4026050567627
1365237.0923461914062
1363722.3460960388184
1362193.5845279693604
1360659.9642810821533
1359120.5379981994629
1357564.064058303833
1355979.0916156768799
1354368.0629768371582
1352748.1050872802734
1351132.1796054840088
1349519.2864437103271
1347902.4198932647705
1346276.589879989624
1344644.9757347106934
1343015.7744426727295
1341401.774585723877
1339816.1221923828125
1338267.7116947174072
1336756.7376518249512
1335281.2241535186768
1333842.3576602935791
1332446.247163772583
1331094.6365299224854
1329778.7508335113525
1328481.4729976654053
1327182.6378307342529
1325866.5058269500732
1324533.2372169494629
1323195.3736190795898
1321861.9477787017822
1320526.2348232269287
1319172.3933486938477
1317791.6296234130859
1316392.0766220092773
1314987.5355167388916
1313573.7685317993164
1312124.9755344390869
1310611.5363636016846
1309024.4608669281006
1307375.055004119873
1305684.6640930175781
1303974.2389965057373
1302257.0336380004883
1300531.7309741973877
1298780.3938674926758
1296982.930980682373
1295128.7636756896973
1293218.2382736206055
1291254.5145816802979
1289243.1152534484863
1287193.1348896026611
1285117.8087863922119
1283033.382303237915
1280954.3386859893799
1278887.958812713623
1276833.8906097412109
1274787.3725051879883
1272744.7779655456543
1270708.3557186126709
1268684.6205902099609
1266683.1819477081299
1264715.1532211303711
1262785.7426605224609
1260892.9547424316406
1259032.5006198883057
1257209.3966770172119
1255437.5528526306152
1253730.807445526123
1252091.1328506469727
1250504.8156433105469
1248947.0854892730713
1247398.6319923400879
1245852.0775966644287
1244307.0268478393555
1242760.0807476043701
1241203.2120876312256
1239628.4073696136475
1238032.9714965820312
1236422.4101085662842
1234804.6332836151123
1233183.281177520752
1231556.0116863250732
1229916.009069442749
1228255.2792320251465
1226567.9193649291992
1224852.6469631195068
1223112.684154510498
1221354.2998580932617
1219587.0372295379639
1217821.0670890808105
1216061.7971954345703
1214307.3756351470947
1212549.3515491485596
1210778.0502910614014
1208988.6336688995361
1207184.1323089599609
1205372.0288829803467
1203556.57346534729
1201736.0484619140625
1199903.9685554504395
1198054.3486461639404
1196187.1374073028564
1194311.8791103363037
1192447.0279598236084
1190613.164794921875
1188821.9740085601807
1187073.052583694458
1185357.0830993652344
1183661.8248920440674
1181980.4083251953125
1180314.2590713500977
1178669.791805267334
1177051.2667694091797
1175457.9780292510986
1173887.8279342651367
1118590.3402404785156
1117115.470947265625
1115637.6124744415283
1114151.4716873168945
1112651.7893829345703
1111136.7689151763916
1109609.1380500793457
1108073.0688133239746
1106529.9365653991699
1104978.0981922149658
1103417.3084125518799
1101851.5950126647949
1100288.6229019165039
1098735.544807434082
1097194.9368362426758
1095662.6234436035156
1094129.1003932952881
1092584.0588493347168
1091021.1562900543213
1089439.8842887878418
1087844.8388843536377
1086242.8136749267578
1084638.584300994873
1083033.0869445800781
1081424.1738967895508
1079808.2866458892822
1078183.5155239105225
1076550.4664402008057
1074910.7689228057861
1073265.7981986999512
1071617.8921966552734
1069971.7020092010498
1068334.9950275421143
1066717.6212615966797
1065130.1075172424316
1063581.3814239501953
1062076.0924110412598
1060611.8053722381592
1059178.7671337127686
1057762.7323875427246
1056351.0387210845947
1054938.3184585571289
1053527.0236835479736
1052124.5946197509766
1050738.4966506958008
1049371.6537590026855
1048019.9032306671143
1046673.6130924224854
1045322.6127834320068
1043961.5365505218506
1042593.1285781860352
1041226.8131580352783
1039874.7804317474365
1038545.7264938354492
1037239.2296447753906
1035944.94944190979
1034648.4585342407227
1033339.5991668701172
1032017.4004707336426
1030687.9672393798828
1029358.1619110107422
1028031.9052486419678
1026709.5551624298096
1025390.0805892944336
1024072.7072048187256
1022757.1862735748291
1021442.9675121307373
1020128.8110008239746
1018812.1981334686279
1017488.3871612548828
1016151.6658229827881
1014797.6496925354004
1013427.1973514556885
1012046.304271697998
1010661.5398979187012
1009275.5501880645752
1007886.4830226898193
1006490.056957244873
1005081.6195182800293
1003658.2711086273193
1002220.2531032562256
1000770.8044242858887
999313.84352493286133
997850.8760871887207
996379.09245491027832
994893.47255325317383
993389.25124931335449
991864.44740867614746
990319.78776931762695
988757.34485054016113
987178.94747161865234
985585.81507873535156
983979.20955657958984
982362.36526298522949
980741.7637767791748
979126.38634300231934
977524.4948787689209
975938.94936180114746
974365.33931922912598
972794.40080070495605
971217.63634490966797
969632.40464210510254
968042.56997489929199
966455.16668319702148
964876.26126861572266
963308.24382591247559
961750.23247528076172
960200.69332885742188
958660.17722129821777
957132.11348724365234
955620.75442886352539
954129.09713363647461
952658.26668357849121
951208.86039352416992
949782.14046287536621
948379.06193542480469
946998.47966575622559
945636.24996376037598
944286.9089469909668
942946.60652160644531
941614.43236923217773
940291.15119743347168
938976.65393257141113
937668.78990364074707
936364.48730659484863
935061.55804443359375
933758.98277854919434
932456.14038467407227
931152.31166648864746
929847.26187133789062
928541.88274574279785
927237.76867866516113
925936.35374450683594
924637.82248497009277
923341.59876823425293
922047.87778854370117
920757.41608238220215
919470.21600532531738
918183.90518760681152
916892.82205200195312
915588.73943138122559
914263.33367538452148
912911.22379302978516
911532.17648887634277
910130.90557098388672
908714.91612815856934
907291.79428672790527
905867.5280876159668
904445.9995174407959
903028.79903030395508
901614.5660285949707
900198.5499210357666
898773.6875
897333.38971900939941
895874.1296272277832
894396.18086051940918
892902.46237182617188
891397.26177024841309
889886.00642585754395
888375.44298362731934
886872.94670295715332
885384.82210159301758
883915.18645477294922
882465.7767333984375
881036.46550941467285
879625.84098815917969
878231.77847862243652
876851.74637031555176
875482.68586730957031
874120.8394889831543
872762.17298126220703
871403.55875205993652
870044.05961799621582
868685.5396556854248
867332.08994674682617
865988.67801475524902
864660.03222846984863
863349.74680328369141
862059.70172309875488
860790.11755561828613
859539.88604736328125
858307.01010322570801
857089.15210151672363
855883.82835006713867
854688.51971626281738
853500.82143211364746
852318.44756126403809
851139.48066711425781
849962.8561954498291
848789.33331871032715
847621.96972274780273
846465.66755294799805
845325.38890075683594
844204.01460075378418
843101.27274322509766
842014.16152381896973
840938.34150695800781
839869.9500904083252
838806.02957725524902
837744.81691360473633
836685.72437477111816
835628.82867050170898
834574.7359676361084
833524.41723442077637
832478.95331954956055
831439.24222564697266
830405.39582443237305
829376.36674118041992
828350.24411201477051
827324.8126277923584
826297.52898979187012
825265.2095890045166
824224.16518783569336
823171.33042144775391
822105.84310722351074
821029.70545959472656
819946.78981590270996
818860.7337532043457
817773.10176849365234
816682.7939395904541
815586.89420890808105
814482.27822113037109
813367.03419303894043
812240.79823303222656
811104.44033813476562
809959.87882423400879
808810.59720420837402
807661.82771301269531
806519.26198387145996
805386.41668701171875
804262.70632553100586
803144.11834144592285
802026.12356948852539
800906.80982780456543
799788.12248420715332
798674.80420303344727
797572.2606315612793
796484.85313987731934
795415.31428909301758
794364.98931884765625
793334.18494606018066
792321.95132255554199
791325.70008277893066
790341.4663200378418
789365.13881301879883
788394.0561695098877
787428.06838226318359
786469.13982582092285
785520.03629302978516
784583.27290725708008
783660.91586112976074
782754.89500427246094
781867.08013153076172
780998.67483901977539
780149.27114105224609
779316.42185211181641
1529495.3472576141357
1507352.5384979248047
1497238.9811763763428
1489248.1582088470459
1482797.4618911743164
1477652.7388134002686
1473441.9112224578857
1469948.5700607299805
1467045.6044616699219