/*--------------------------------*- C++ -*----------------------------------*\
  =========                 |
  \\      /  F ield         | OpenFOAM: The Open Source CFD Toolbox
   \\    /   O peration     | Website:  https://openfoam.org
    \\  /    A nd           | Version:  12
     \\/     M anipulation  |
\*---------------------------------------------------------------------------*/
FoamFile
{
    format      ascii;
    class       volScalarField;
    location    "0.011";
    object      rho;
}
// * * * * * * * * * * * * * * * * * * * * * * * * * * * * * * * * * * * * * //

dimensions      [1 -3 0 0 0 0 0];

internalField   nonuniform List<scalar> 
75962
(
1.1690568069391502615
1.1680852356398485625
1.1699054663316705849
1.1699966562770169887
1.1715860692800115217
1.1729719525323800688
1.1729696983913187047
1.1727970987154201499
1.1725360875884480727
1.1722256960242889434
1.1717215089725225852
1.1717497674783496908
1.1727558455912652224
1.1739240700864452815
1.1738490895633217903
1.172727549642756717
1.1718491575348004563
1.171713194697267868
1.1720808164458580425
1.172716027827874985
1.1733753806245608153
1.173531687427901149
1.1730588321180039912
1.1725271307213396277
1.172395137470731985
1.172314771843565584
1.1719827672404186103
1.171786523069235697
1.1718860898428342665
1.1720789961336870455
1.1723131502947048421
1.1726990893174165098
1.1728264199630347164
1.1724765615702474886
1.1719900869321113746
1.1718275575599297333
1.1719496175381565184
1.1720847403050747015
1.1721094851926459057
1.1720718480212883872
1.172071280178489161
1.1722073598383107029
1.1724971570905819984
1.1728537826264704425
1.1731268368206531072
1.1731455057069786196
1.1728298349147452395
1.1723376170491308645
1.1720272871057539898
1.1720838426411277489
1.1722881909442828263
1.1723325221764682169
1.1721703382588120057
1.1719351410575489236
1.1717351944341576342
1.1716293203204475315
1.1715824130999334951
1.1714547629603055956
1.1711247682756187327
1.1706718825257336203
1.170365273993892119
1.1704054500962142171
1.1707546489029787562
1.171113228921031979
1.1712037081084465395
1.1710218940271288623
1.1708258504955559864
1.17079739629264723
1.1708783367384556495
1.1708279502361575997
1.1705288856483404558
1.170122974310005004
1.1698554857750593783
1.169801722093157359
1.1697783499841545307
1.1694919167939652471
1.1688615210043089565
1.1680763095208952507
1.1674634365561979976
1.1672035560320479508
1.1673100041577981756
1.1676903742387418905
1.1681742452642749353
1.1685402453429873937
1.168590768216999809
1.1683369540395731612
1.1679904693160805262
1.1677485799931635047
1.1676308250090148277
1.1675326539199630815
1.1674214472073780602
1.1673463265001899902
1.1672750206624169511
1.1670829149006174408
1.1666718533625533016
1.1661189664066569094
1.1656350719579344766
1.165409291939553782
1.1654672626929760693
1.1657205444660554416
1.1660556187713071452
1.1663901089162145297
1.1667108619425867744
1.1670326284398921945
1.1673255306063632375
1.1674916890764708288
1.1674308016764400886
1.1671532718128623252
1.1668130059131067711
1.1666026674047600409
1.1665641509480573212
1.1666214552186093822
1.1666534443283234079
1.1666239493783971959
1.1665678729964257254
1.1664976666959356866
1.166368350683295585
1.1661110142957336056
1.1657227138732106919
1.1652817285784589085
1.1649233291361174025
1.1647609024602310068
1.1648442960839189286
1.1651147673673054594
1.1654241340432338614
1.1656174662653555618
1.1656179915519471191
1.1654683742882452346
1.1653135866029782353
1.1652921718218260949
1.1654605666878514736
1.1657535455880125852
1.1660227087720071992
1.1661359671378246361
1.1660490739248612346
1.1658354430017900949
1.1656181887572318878
1.1654844165429578684
1.1654245462228343122
1.1653535154251160044
1.1651904495514417981
1.1649430300787961823
1.1646972816838667697
1.1645487029549499436
1.1645288529711417258
1.164605316065998597
1.164727292237670131
1.1648644750627670241
1.1650024991062706281
1.1651225454730920195
1.1651982149910256048
1.1652170972056317133
1.1651977417003367421
1.1651986661311526383
1.1652534149021887
1.1653658937384254735
1.1654919848439777574
1.1655725418106477331
1.1655674741693702323
1.1654760663138150623
1.1653270093023246901
1.1651542191307235896
1.1649801165623634436
1.1648123433944592708
1.1646513839707326454
1.1645055847518952508
1.1643773842042937083
1.1642745019584981314
1.164188449709580242
1.1641109579287267639
1.1640482232548277075
1.1640295069865771449
1.1640862337131678839
1.1642364415987549453
1.1644711970357584097
1.1647598061553545712
1.1650497586479215961
1.165286191441415431
1.1654147853155747416
1.1654073591995111059
1.1652644439586397063
1.1650095196619909554
1.1646915962490127505
1.1643758157436887579
1.1641186391975884007
1.1639670799895407427
1.1639458464535659132
1.1640411987275580685
1.1609424938239039093
1.1605549491587123789
1.160221834190541923
1.1600009291250625854
1.1599036064880092756
1.1598900228027899661
1.1598868629912064687
1.1598265218298415835
1.1596808240333185136
1.1594720399738840388
1.159265861173857548
1.1591346307601795296
1.1591241444231730195
1.1592400682730394923
1.1594473439694246153
1.1596967347609863364
1.1599358445577385712
1.1601250523135349102
1.1602431936289052672
1.160286962605896921
1.1602633360652272465
1.160189898314488488
1.1600888383650975744
1.1599857596266953674
1.159908709238814728
1.1598790984185181063
1.1599087877339706587
1.1599947767007054988
1.1601178197219730315
1.1602422915896364319
1.16032383655309701
1.1603246036262531149
1.1602257269411633267
1.1600346456659871297
1.1597863067955205274
1.1595354066448657626
1.1593431680160113384
1.1592577995839961069
1.1593000090230138888
1.1594543889372102008
1.1596756231065057374
1.1599097201546744174
1.1601114556893052931
1.1602585569376930863
1.1603514887585075765
1.1604028150869949432
1.16041951316323666
1.1603946770965125612
1.1603133933267646416
1.1601638075306401898
1.1599550478408058307
1.1597181286385025434
1.1594967790838632826
1.1593325187367073958
1.1592511463129893112
1.1592571710970465126
1.159336902770260691
1.1594688793350971245
1.1596275115340055617
1.1597888287699693599
1.1599325517821919007
1.1600385905775707496
1.160087185403916088
1.1600626982770507745
1.159963848768353456
1.1598083994709507127
1.1596321152019053446
1.1594771749326160393
1.1593768316692740772
1.1593308929216636916
1.1593177365060483019
1.1592932911802176221
1.1592190670959041654
1.1590791474356820778
1.1588869629453468768
1.1586832965796198813
1.1585138458907973114
1.1584076769671443063
1.1583647232941705063
1.1583578824996287882
1.1583452074739657434
1.1582968118285685843
1.1582055221770803932
1.1580941829148214683
1.1580064592052585759
1.1579895764229422017
1.158071825223231599
1.1582483426808418692
1.1584834058928181744
1.1587135888612731804
1.1588683158681818419
1.1588883914843428613
1.1587406750363187236
1.1584331977992423646
1.1580040734623344711
1.1575162804824810081
1.1570370957377595911
1.156626671024205022
1.1563283166680111691
1.1561668484838036886
1.1561514904064307263
1.1562803421293952333
1.1565409609098631361
1.1569159172977709904
1.1573777963410381009
1.1578913445282130734
1.1584116017163568202
1.1588902573487056546
1.1592835092913771344
1.1595530667968660943
1.1596747455244043046
1.1596442486218467849
1.1594761250180052325
1.1592031733470966604
1.1588700978706558686
1.1585233671535406508
1.1582072143894850402
1.1579589881310812238
1.1578053694744911972
1.1577606494325516362
1.1578263707838201135
1.1579935419142479702
1.1582411844998663497
1.1585335089170480938
1.1588267091995616553
1.1590765208371947015
1.1592450997890899611
1.1593082420052123194
1.1592594191320013675
1.1591073943047809358
1.1588758481283534252
1.1585901494651227317
1.1582712442640614725
1.1579357401482086587
1.157599366255987805
1.1572821241588591157
1.1570084954301909086
1.1568045218478810732
1.1566953245660966942
1.1566995609728440986
1.1568232448199842199
1.1570561974100823655
1.1573754639012394652
1.1577528388875690801
1.1581630928024599925
1.1585893598511121105
1.1590244875471362729
1.1594685435094531645
1.1599261767866966277
1.160401231307184533
1.1608942646630662221
1.1614012564879003797
1.1619150828967323985
1.1624269491002920951
1.1629291844707105863
1.1634148665068497763
1.1638766205350961069
1.164304336648324556
1.1646852361009312204
1.1650056006549294185
1.1652529877587507467
1.1654208888771049324
1.1655099352566389292
1.1655317368239341835
1.1655078177704965015
1.1654652386523176588
1.1654315380546191872
1.1654273768364955544
1.1654622637202560753
1.1655343713629351399
1.1656301745242660939
1.1657294332359875444
1.165812557738044708
1.1658655277440603815
1.165882041187300544
1.1658627751928700711
1.1658122741914844767
1.1657359098477739767
1.1656397583046300692
1.1655308466762444031
1.1654180774370925811
1.1653118384262228791
1.1652219447713860756
1.165153929712865688
1.1651076811480896023
1.1650768892614880023
1.1650493064731950454
1.1650093763709172823
1.1649438333413508762
1.1648473820316942451
1.1647277048942077382
1.164603607272880037
1.1645008477270968328
1.164444813805425083
1.1644544358032222764
1.1645370900212923537
1.1646850506183470397
1.1648743508549792569
1.1650760503163197779
1.165259104446797922
1.165401253890024913
1.1654923244406329985
1.1655340053720049109
1.1655390715431912518
1.1655283364657338385
1.1655223306961148833
1.165535925758844682
1.1655753966419655221
1.1656372524420999248
1.1657107214681954321
1.1657827770221995678
1.1658430085903201956
1.165884702631963421
1.1659057650118282989
1.1659095365141016742
1.1659022951197983708
1.1658895423996709084
1.1658742854515971032
1.165857223884881444
1.165837632040592764
1.16581465386396399
1.1657888304406858193
1.1657629801282960447
1.1657423536231299455
1.1657338986068663811
1.1657436967535979022
1.1657736944737635554
1.1658202119589060608
1.1658743266927267257
1.1659228893135604732
1.1659507877887775873
1.1659446774915014355
1.1658963016245553757
1.1658042952744029908
1.1656748435886377102
1.1655211181476863302
1.1653600875844813967
1.1652075129686836341
1.1650754317106881697
1.1649723257377579966
1.1649032811053368075
1.1648690055929074028
1.1648657740958789919
1.1648861835459194403
1.1649198660053563525
1.1649556540444301334
1.1649835305054416779
1.1649954225385747986
1.1649849453530221055
1.1649487330316767864
1.1648884513892987513
1.1648106889848626189
1.1647258606361425848
1.1646446993861905295
1.1723493749998281643
1.172489526202505461
1.1722523689210684328
1.171990915614669726
1.1718422431888417812
1.1708718144801424366
1.1707906794536524497
1.1715723500731582973
1.1719888708524730525
1.1725458853642003465
1.1728341897264360494
1.1729058814992030513
1.1735852282581658024
1.174580105264455554
1.1745505786788668079
1.1733769141625685073
1.1724447747766166827
1.1723977113578318843
1.1726441781462113578
1.1731167083356126568
1.1737845845628729347
1.1739667005210812079
1.1733100723671541221
1.1725168275830832876
1.1723271146344884652
1.172360332934754501
1.1720650446743532402
1.1717268197971539845
1.1716438585483861523
1.1717404195213245721
1.172127497605290225
1.1727417691931014687
1.1730984234946628675
1.1729306462813309242
1.1725742339879448028
1.1723905841325352739
1.1723896663073352098
1.1723595901112149331
1.1722488630469780624
1.1720787553365390465
1.1718991920688095476
1.1718494626905209266
1.1720862261447644315
1.1725993622251538184
1.1730943402660545249
1.1732338220700975207
1.1729429668000133091
1.1724679150832837404
1.1721320547373452747
1.1720424705221448303
1.1720562569945347509
1.1719939361772599984
1.1718360017025106767
1.1716544036157450215
1.1715171082622948262
1.1714829978285092871
1.1715237625439411939
1.171475996191032154
1.1712131993342251857
1.1708277434955458585
1.1705531336227488204
1.1705523311436469847
1.1708071529725545545
1.1711191626868679982
1.1712421418598240042
1.1711210562066498575
1.1709448268835858098
1.1709132828251025416
1.1709925916071750596
1.170937785007996057
1.1706154920223494909
1.1701395855198857276
1.1697688434687589787
1.1696387552343894267
1.1695986065578680702
1.1693800451563838294
1.1688506204981652381
1.1681635288863989608
1.1675891326109106849
1.167319558868713969
1.167397274823767539
1.1677106657992131211
1.1680836003209442708
1.1683420792947567524
1.1683583301452269421
1.1681547062301500528
1.1678897670543324505
1.1676946127212139981
1.1675849122547548031
1.1674854278611848102
1.167385494575323035
1.1673102403503230473
1.1672234842224529228
1.1670306367456995122
1.1666729601484446821
1.1662105517609544503
1.1658142306077192707
1.1656249596341863306
1.1656881600537740695
1.1659297052628145863
1.1662265566283822604
1.1664680763155226284
1.1666470235463513028
1.1668346542742942251
1.1670653599603451056
1.1672595440561772673
1.1672693097605677526
1.1670541423109903612
1.1667439160699220047
1.1665450626746798335
1.1665565688662757893
1.1667272408269495632
1.166898056786875193
1.1669640538380650074
1.1669043558569538455
1.166734219077760315
1.1664532526785449384
1.1660741795285058942
1.1656365673280641992
1.1652303687544875999
1.1649460043286641309
1.1648599213070831571
1.1649933493629816006
1.1652914360094246415
1.1656072173035951778
1.1657704019420951358
1.1657060108346020133
1.165481538688916574
1.1652640803283864646
1.165213844489942252
1.1653872210423137368
1.1657187249770994963
1.1660434843507503366
1.1662139473569435033
1.1661866184102795962
1.1660252096368861618
1.1658515443096009179
1.1657534464879000247
1.1657108800513198421
1.1656264957792732417
1.1654139897970252626
1.1650985127095645488
1.1647893499773542825
1.1646025865464177951
1.1645863995971041938
1.1647021723181765207
1.1648869367428011934
1.1650876859491341442
1.165264568896863473
1.1653744030152051181
1.1653781250660346647
1.1652827453866190233
1.1651415866725181036
1.1650240403442990722
1.1649919937142547699
1.1650491793800157314
1.1651614799647012077
1.1652719804606410658
1.1653223757889739076
1.1652791568918410281
1.1651440152198555555
1.164942166201549778
1.1647126018325466568
1.1644971045849699109
1.1643241372160504365
1.1642008234605147887
1.1641047822926264832
1.1640140636631708393
1.163916413170594133
1.1638102270280334949
1.1637260252878200983
1.1637175401791561846
1.163827339489687418
1.1640674090580866995
1.1644071764966792415
1.1647777631453766212
1.1650959127457769515
1.1652902864336469602
1.1653327210684583104
1.1652379300259021466
1.1650472371236915148
1.1648045441330396876
1.1645434936274010607
1.1642995334033392485
1.1641140294997545102
1.1640188819976986512
1.1640324245531348257
1.1641357118749027233
1.1642764358259150015
1.1615368788284889945
1.1612052914412220872
1.1608176860327277247
1.1604563204028852663
1.1601899660710430773
1.1600450705642890714
1.1599961723651859291
1.1599776296581245649
1.1599182011312534346
1.1597724162988292118
1.1595496394102899895
1.1593112372283220779
1.1591344158928247321
1.1590851727229765089
1.1591849140491898851
1.1594060142721660522
1.1596892517936974176
1.1599666757316786647
1.160187219456048302
1.1603215577532786096
1.1603653095754968838
1.1603320396475238496
1.1602438173580673642
1.1601280236728457318
1.1600145308506244479
1.1599340665937936112
1.1599094964426375221
1.1599505984303339901
1.1600494452931995326
1.1601783156528566732
1.1602954216532610499
1.1603578415891491193
1.1603347971971120778
1.160217905162474139
1.1600217198264248797
1.1597843995408168016
1.1595575318941013787
1.1593946366349690003
1.1593333445559259598
1.159384931710514044
1.1595286239645636872
1.1597177962860742984
1.1598998065786230161
1.160036110850895863
1.1601152995600572115
1.1601515746138382212
1.1601679397387218984
1.1601770554327701657
1.1601703903764903902
1.1601241135679931649
1.1600177098794075548
1.1598515564112905629
1.1596535844876512122
1.1594677781459028498
1.1593373788427419058
1.1592899973094112909
1.159328501890834584
1.1594352599261414927
1.1595819419154813623
1.1597391341545586485
1.1598821866494910537
1.159992583501192609
1.1600546462775132017
1.1600557029768299167
1.159987510303105207
1.1598545666993158587
1.1596784609351726836
1.1594970272306828196
1.1593547750790813566
1.1592803620373184348
1.1592744490898969634
1.1593077804077212001
1.159331874610072477
1.1593031320745004198
1.1592043198121138037
1.1590510974768657437
1.1588834981597937457
1.1587432164832525139
1.1586536772991491429
1.1586092983974609627
1.1585825740015263108
1.1585343270124173198
1.1584425114657868061
1.1583098881566071814
1.1581693298960638039
1.1580645425396673964
1.1580392367328109504
1.1581136953002477696
1.158274576118095478
1.1584796812110502717
1.1586676063042578022
1.1587738499816391258
1.1587535445262135969
1.1585893104297575462
1.158297445556005334
1.1579158218486347298
1.1574979649140026972
1.1570954361401264432
1.1567508983605603312
1.1564948481180592488
1.1563483505249625427
1.1563228935496396854
1.1564275209484939921
1.1566609265174636612
1.1570141629653007964
1.1574625225234052017
1.1579702606933790499
1.1584882778547913595
1.1589630254009051225
1.1593476720066537844
1.1596019169974598473
1.1597043283228782862
1.1596541731762202154
1.1594680116079267851
1.1591831724160166495
1.1588459377847368792
1.1585049821868163011
1.1582051586242050334
1.1579824665582154619
1.1578607064646497804
1.1578506759335824849
1.1579488554203214434
1.1581392760354196625
1.1583969132566707128
1.1586866803018400773
1.1589631391077399591
1.1591819834812977508
1.1593067725414629709
1.1593184455126466226
1.1592147413561839642
1.1590103714106283483
1.1587332907238536706
1.1584112637067782714
1.1580654999595245691
1.1577143627468187148
1.1573698373806937667
1.1570501746104051577
1.1567805319975443812
1.1565895034006383746
1.1565037954352690441
1.1565429524719845755
1.156712874604237884
1.1570015347023814289
1.1573821726316955161
1.1578208238109719552
1.1582860085293897878
1.1587558611226049798
1.1592216752328743379
1.1596845709540883895
1.1601522160426362973
1.1606336475933378694
1.1611341486749986451
1.161652365478781368
1.1621820118594288207
1.162712005146531391
1.1632282677795040549
1.1637157940105939957
1.1641603416371473223
1.1645488216647297275
1.1648688000572366974
1.1651123101436724472
1.1652762983422928489
1.1653649019476979287
1.1653901910373214434
1.1653711958641927993
1.1653339374347768675
1.165306048457865451
1.1653116155828395772
1.1653638904085787953
1.1654624724932021174
1.1655940360023226976
1.1657351859279094786
1.1658585765043982807
1.1659414754407406711
1.1659720077932618221
1.1659495876678169779
1.1658838676280700586
1.1657885086449446543
1.16567723009259816
1.165561685784622048
1.1654499669022289066
1.1653492071507036698
1.1652662360509316031
1.1652083958638916883
1.1651798053736550642
1.1651785915375632019
1.1651955101301321172
1.1652161680806256694
1.1652223480702998959
1.1651986219580365844
1.16513738433361147
1.1650434900815025419
1.1649353092352956462
1.1648386551728087124
1.1647800512791035565
1.164781393907242002
1.1648511287675884507
1.1649822839675436636
1.1651536605665031576
1.1653335632720021042
1.1654928766771806004
1.1656106636282126399
1.1656775884460663928
1.165698944337494547
1.1656902299560500946
1.1656717852952844794
1.1656637907480300598
1.165680192602523757
1.1657253924474788587
1.1657945492924040032
1.1658769189128563859
1.165960123818365668
1.1660332604926686439
1.1660889482100778025
1.1661240416810425558
1.1661392040303508733
1.1661375775928830567
1.1661228002184975683
1.1660974664492484987
1.1660635977887687798
1.1660237860915108055
1.1659821237214575973
1.1659447793871813293
1.1659189761359212145
1.1659107102750110307
1.1659238522711210528
1.1659596243543475236
1.1660146323307907235
1.1660797671245655138
1.1661418674273718032
1.1661864900290983549
1.1662002536237079386
1.1661732500973651661
1.1661012330214433064
1.1659863059507931116
1.1658368040808941846
1.1656665419561462738
1.1654927969365196372
1.1653321865091619269
1.165196899452133561
1.1650937330425445992
1.1650247600354168842
1.1649885754971931462
1.1649806171826408985
1.164993968963921267
1.1650200311421978761
1.1650494837763254452
1.165074472698220065
1.1650894635965782786
1.1650908802362700545
1.1650765321869589464
1.1650466829250976097
1.1650046052959006637
1.164955756025721989
1.1649067343412145004
1.1734481712691888777
1.1743688487053580705
1.1729481715830738509
1.1718836951833786486
1.1712218524337714154
1.1714803995471392284
1.1726937423115550985
1.1729225446314803794
1.1724584786164680139
1.1730152529452388954
1.1741759196742804772
1.1743992408817693907
1.1743461110501252076
1.1747049366311190788
1.1747293927124493607
1.1739817593034436172
1.1734598234433117891
1.1735888157974661006
1.1736268486203762507
1.1735358786033245337
1.173928709434568507
1.1743617075303018904
1.1739184049368165397
1.1730888319038028644
1.1728285424879878462
1.1728555244392797619
1.1724945581173378262
1.1719104064947694077
1.1716435739426724894
1.1718274265990635818
1.1723289863334731553
1.1729308408933210028
1.1733290333152299745
1.1733471069804903841
1.1731416821256321903
1.1729290788645230226
1.172761003028700344
1.1726429481121509735
1.1725245603815743767
1.1722993676220985204
1.1719790426647551662
1.1717613242637070492
1.1718921776406585611
1.17240765905924893
1.1729770591126791324
1.173204527282896148
1.1730077759357973033
1.1725934164900755352
1.1721807769119747533
1.1718577395792579843
1.1716270233633305775
1.171462376902111302
1.1713606611980840189
1.1712989238486521959
1.1712688404290516608
1.1713106720360206836
1.1714382082555636622
1.1715117860127652882
1.1713837819277699293
1.1710664153260261777
1.1707353036567873517
1.1705879174094742101
1.1707102141765837189
1.1710194115359082723
1.1712620646490361498
1.1712558649940549849
1.1710520138475488672
1.1708833232541446812
1.1708319305753698281
1.1707532445258941323
1.170471067613295002
1.1699982253309648694
1.1695621014123791515
1.1693505017069296681
1.1693151637124448161
1.1692272039256308425
1.1689258620178322179
1.1684333292737973942
1.167919232207447422
1.1675712236958486478
1.1674897623132478586
1.1676386062795416354
1.1678873174141706226
1.1680852863127866303
1.1681315686747053562
1.1680111226090659216
1.167800181864150133
1.1675800702367162831
1.1674096670126870023
1.1673106099572301275
1.1672836790714917754
1.1672784556495068298
1.1672314274109418797
1.167082747420551847
1.166813659332691433
1.1664665070108499734
1.1661448872417699008
1.1659671417077301925
1.1659782421970368294
1.1661489060017784514
1.166378499265692259
1.1665411326263979142
1.1666233634427773946
1.1667238255320540041
1.1669148022731923309
1.1671355452169258626
1.1672150853166707307
1.1670569964042583067
1.1667739248886448422
1.1665858970582059229
1.1666700360677726422
1.1669441965264215622
1.167200204867526514
1.1672662555743145152
1.1670990539424335175
1.1667499134408716444
1.1663042634475850878
1.1658529291003520978
1.1654636285616024605
1.1652015682990626289
1.1650908404484017211
1.1651486734686071767
1.1653585700096726896
1.1656573549996933625
1.1659243640969758626
1.1660095421102949498
1.1658543368449643118
1.1655450142913497125
1.1652589033673572683
1.1651647117604970738
1.1653139448298510672
1.1656360558934806271
1.1659838113525620162
1.1662125232001399056
1.1662582020654781445
1.1661588633439803342
1.16601219830974423
1.1659036034492358258
1.1658298603809111871
1.1657230720571980509
1.1655242596743133898
1.1652602453001297267
1.1650265841882398998
1.16491515646747823
1.1649453821686142074
1.1650579753910654812
1.1651893654047240645
1.1652932614175888215
1.1653449407399927296
1.1653324750886719929
1.1652542230934965772
1.1651308140672200775
1.1650000895780998622
1.1649037660013785711
1.1648709298442694315
1.1649026875593286867
1.1649796853570870692
1.1650686468645199412
1.1651212119046241433
1.1650835656603562018
1.1649309678974280047
1.1646852058781682615
1.1644030641317748564
1.1641511215206701291
1.1639740311372306358
1.1638704399765336106
1.1637982830827611203
1.1637070515995442399
1.1635784258759493959
1.1634355364603867766
1.1633470537766621433
1.1633886787817759867
1.1636080722026409529
1.163992746143996726
1.1644639207965403749
1.1648989465380563679
1.1651863504344588396
1.1652561851994587272
1.1651273829253532277
1.1648739182186311769
1.1645857304188316217
1.1643347985945646794
1.1641534373450741491
1.1640454649277025556
1.1640186701689763105
1.1640733332645845088
1.1641882710599162909
1.1643161509726305258
1.164397620921253651
1.1616343892653024916
1.161325729492355352
1.1609577669055763938
1.1606014494799774539
1.1603198562527339277
1.1601454476964179197
1.1600653519267087876
1.1600300836838857155
1.1599732063572367746
1.1598431515839129347
1.1596346392828189575
1.1593952578792343644
1.1592044188863579457
1.1591397057213970179
1.1592385008662766666
1.159479051526982607
1.1597917548880736227
1.1600922940480360435
1.160316234393725443
1.1604300126408235716
1.1604377832705066176
1.1603652548071186068
1.1602482638402336068
1.1601184139031592846
1.1600050636338958832
1.1599352227605082
1.1599244228762570774
1.1599732232205968163
1.1600675336394230541
1.1601768541946311242
1.1602644212141068891
1.1602957670499691734
1.1602516965193805376
1.1601326865454493209
1.1599590865991695754
1.1597651527949612849
1.1595932539024045305
1.1594824086399155849
1.1594540426113857379
1.1595100897436763088
1.1596263186717217231
1.1597612348223222956
1.1598739173095786725
1.1599407553166241058
1.1599632628103100362
1.1599656559680022738
1.1599717527619273216
1.1599898064108573603
1.1600050481877417496
1.1599868478619317358
1.1599122050430878961
1.1597796656449348429
1.1596152878759462546
1.1594634658150337891
1.1593673025790118825
1.1593523129299134755
1.1594187328596523567
1.1595430053891815358
1.1596925124260375473
1.1598321110181166738
1.1599401785498610895
1.1600009622577536206
1.1600101247863123799
1.1599648196133334199
1.1598643290089860614
1.159716232317319573
1.1595417905737610553
1.1593758645725746881
1.15925766723310808
1.1592130071009663084
1.159240358014136385
1.1593094483238843839
1.1593701539278795654
1.159376302433811512
1.1593078649833805649
1.1591820788291229416
1.1590362567053960063
1.1589102268583106881
1.158825484052367738
1.1587788671671792606
1.1587427430458210331
1.1586839439335607782
1.1585817844518964126
1.1584427421523781909
1.1582964489349527604
1.1581879745340961652
1.1581557291160144985
1.1582159019222688645
1.158357118163809707
1.1585355192464148466
1.1586943705390497783
1.1587736594611559582
1.158733074013965636
1.1585616490249150967
1.158278323794276643
1.1579233249751652579
1.1575458685209150111
1.157194110252045105
1.1569053272393357013
1.1567029145045206739
1.1566030670570284222
1.1566153089858779435
1.1567443151899259313
1.1569900226273486243
1.1573416431695278117
1.1577773042276224835
1.1582597075145335541
1.1587425470051964105
1.1591733578664156212
1.1595025823392677289
1.1596967682247807385
1.1597412039496155511
1.1596429600848223718
1.1594265785502089194
1.15913342556279364
1.158810868022620566
1.1585052612271837802
1.158255919177060056
1.1580889066926252084
1.1580179025006347437
1.1580460679024697779
1.1581655321964261507
1.1583572758829701055
1.158595404316483668
1.1588484479517766612
1.1590773953211606084
1.1592426340860109146
1.1593146689246263126
1.1592791759912375316
1.1591414742522050396
1.158918861348622098
1.158637264813424439
1.1583192168725851001
1.1579897749767560367
1.1576586593255269175
1.1573343856158104792
1.1570323077786639487
1.1567769021190874579
1.1565989546923896025
1.1565291823648409242
1.1565900469647900639
1.1567881793362249088
1.1571114023680968419
1.1575305487908436053
1.1580087297013703651
1.1585105765462282434
1.1590110350835278741
1.1595003282235643027
1.1599823129833644053
1.1604687321053375193
1.1609729162742412623
1.1615041962287924182
1.1620628654479649988
1.1626389069093103767
1.1632144611740615758
1.1637658815827021108
1.1642680490935042315
1.1646983499437124632
1.1650404734622081815
1.165286013615730365
1.1654357940280404282
1.1654993343141180073
1.1654934498122733189
1.1654409117660153861
1.1653677476105916977
1.1653021837007877526
1.1652712524025059526
1.1652933828121656568
1.1653741259692820265
1.1655044844459743203
1.1656626248814345725
1.1658192794226354128
1.165945955722678784
1.1660219753995049174
1.1660375946806282865
1.1659967160520747775
1.1659134470264578276
1.1658067887586460731
1.1656924927388503388
1.1655797693523100023
1.1654754876597257507
1.1653859602707192789
1.1653178233396350727
1.1652767811553352839
1.1652680628421718811
1.1652914529735733939
1.1653388355168088353
1.1653947795689543199
1.1654410361925184869
1.1654603820655922153
1.1654438765159600422
1.1653918494588320076
1.1653193593441171227
1.1652481882605842944
1.1652037431202801887
1.1652047521631867522
1.1652595847586382227
1.1653608980713476839
1.1654954077616455077
1.1656345693434497779
1.1657528894429671773
1.1658337673699199488
1.1658708602283192057
1.1658704348843655918
1.1658471355598467589
1.1658194433912503207
1.1658060271631671689
1.165819907029205682
1.1658648792782113635
1.1659369667267873716
1.1660268418408701319
1.1661224095486262264
1.1662120979383037156
1.1662869859585003329
1.1663409639201862689
1.1663705201737093464
1.1663751132686002165
1.1663566645664333876
1.166318312417931935
1.1662644615860957575
1.1662021725476550138
1.1661413712984722846
1.1660935472711553285
1.1660697458716602348
1.1660775675974339727
1.1661180765079071087
1.166186104922666722
1.1662714251367614082
1.1663591228099425834
1.1664317563246371368
1.1664730903244879823
1.1664712771757146381
1.1664203394956866866
1.1663209083923378184
1.1661796752681132805
1.1660076937923133933
1.1658193499192179843
1.16563123853464079
1.1654597749645509985
1.165317476878225067
1.1652107934606643624
1.1651407141510485843
1.1651044640944345776
1.1650968655576694477
1.1651107545906305152
1.1651378166864423402
1.1651693260238988881
1.1651977075010320206
1.1652184882618690231
1.1652301077562361442
1.1652324754221576875
1.1652258389238845382
1.1652112566258649995
1.1651907383924997585
1.165166449589971176
1.1651401179118827667
1.1722274852802301304
1.1709129739063786069
1.172581738626268022
1.1732039455398199923
1.172041445313603214
1.1718802678289721442
1.1727882529095292607
1.1727880344806438373
1.1726677621277401542