/*--------------------------------*- C++ -*----------------------------------*\
  =========                 |
  \\      /  F ield         | OpenFOAM: The Open Source CFD Toolbox
   \\    /   O peration     | Website:  https://openfoam.org
    \\  /    A nd           | Version:  12
     \\/     M anipulation  |
\*---------------------------------------------------------------------------*/
FoamFile
{
    format      ascii;
    class       volScalarField;
    location    "0.01";
    object      alphat;
}
// * * * * * * * * * * * * * * * * * * * * * * * * * * * * * * * * * * * * * //

dimensions      [1 -1 -1 0 0 0 0];

internalField   nonuniform List<scalar> 
75962
(
5.3505853123308101382e-07
7.0338299647632204749e-07
8.1763331165275306644e-07
9.0922704087259434257e-07
1.0388061986432873723e-06
1.202529825199642075e-06
1.3367105943831504243e-06
1.4060765816506615275e-06
1.4429792530671506657e-06
1.4965773785978634781e-06
1.6097444653022597475e-06
1.7592647734899092929e-06
1.8642077043160454341e-06
1.9151534668292802681e-06
1.9858445684303075603e-06
2.1037155327467182916e-06
2.2099838097442527455e-06
2.2718314619295819072e-06
2.3228416738635160964e-06
2.4160879531101230351e-06
2.5585068647592820923e-06
2.7032337189161850685e-06
2.8035778987119199825e-06
2.8527033754450991725e-06
2.8787782751922454992e-06
2.9204173851838094168e-06
3.0242424441067600381e-06
3.1780140981566244419e-06
3.2819606684361090239e-06
3.3534071338924748739e-06
3.4348241339542168197e-06
3.5278581096375690141e-06
3.597822272569688521e-06
3.6373559078604032927e-06
3.6852413846350850558e-06
3.7776959684040373007e-06
3.8954252507144434021e-06
3.9966006275085550197e-06
4.0675033005410331097e-06
4.1263628412427564543e-06
4.2046264560986460786e-06
4.3128291038052427064e-06
4.4253939755087507227e-06
4.5091127258105343506e-06
4.5642599305523796061e-06
4.6241813574658975007e-06
4.7129200628099129442e-06
4.8212569234507659697e-06
4.9220307315957676519e-06
4.9953653940901676073e-06
5.041878592445078771e-06
5.0778629162048276666e-06
5.1212678032035722819e-06
5.1808917418191581799e-06
5.2523106162779869594e-06
5.3253212235319952211e-06
5.3974386869141672177e-06
5.4784206096971458511e-06
5.5786631145680671726e-06
5.6962000427950892136e-06
5.8185970306501834395e-06
5.9350810573314028459e-06
6.0405705692636903475e-06
6.1285628814672085468e-06
6.1892566816797177476e-06
6.2193332777456323185e-06
6.2325607290803669127e-06
6.2544989148508362115e-06
6.3150080328416068683e-06
6.414410105052543644e-06
6.5106725274975396961e-06
6.5913759875027821741e-06
6.6574872213455846951e-06
6.7147500601749971825e-06
6.7670804151014514393e-06
6.8161954254620487273e-06
6.8664149193968913e-06
6.9255204035924711886e-06
7.0003405562788456495e-06
7.0908827090700589534e-06
7.1865149316552941108e-06
7.27151798301051536e-06
7.3356833240251746535e-06
7.3782371297896323233e-06
7.4075493968269360848e-06
7.4362440832694233758e-06
7.4758787053742090036e-06
7.5332784999681649886e-06
7.6078202660663445559e-06
7.6921754098770787591e-06
7.7750170363132214117e-06
7.8457500532538171226e-06
7.8960951985879164987e-06
7.9225020824591415062e-06
7.9300950309230012895e-06
7.931537564610544413e-06
7.9408244549275089531e-06
7.976594910903018817e-06
8.095064553889277299e-06
8.258338193879640474e-06
8.3816068532068680131e-06
8.4585239650570798539e-06
8.498159176284280714e-06
8.5194736359122160416e-06
8.5412185449156714079e-06
8.5761898109703594959e-06
8.6291026628224247528e-06
8.6975908166650717338e-06
8.7740248216337444581e-06
8.8483899323025256146e-06
8.9112535759782624553e-06
8.9555810473300724665e-06
8.9794816463417691954e-06
8.9874694973927002746e-06
8.9890136298788534644e-06
8.995909091188178291e-06
9.0205944255118781849e-06
9.0828552589827030704e-06
9.157588041255519692e-06
9.2289137004733906149e-06
9.2879010517114603951e-06
9.3312570636673998307e-06
9.359763939360236652e-06
9.3813232608745763006e-06
9.4046657852882612031e-06
9.4391320922215202091e-06
9.490768784421537056e-06
9.5632089578576491985e-06
9.6582014295587301591e-06
9.7762773269668271406e-06
9.9147129883473294787e-06
1.0064845280180344012e-05
1.020858325884038799e-05
1.0322565817990887147e-05
1.0389501700378249376e-05
1.0408652869840611589e-05
1.0402003510292023844e-05
1.0380726081786711116e-05
1.0330065032332728722e-05
1.0299940279232539715e-05
1.0288675986758394533e-05
1.029190933366488567e-05
1.0356775914033746819e-05
1.0485507461508556553e-05
1.0580761786338525675e-05
1.0645476735568848659e-05
1.0689984651043083109e-05
1.0722598078782885937e-05
1.0751038180701028257e-05
1.0780982183647230631e-05
1.0814500367675461897e-05
1.0851692191773989858e-05
1.0889752101249194663e-05
1.092214271716132574e-05
1.0943491538105131961e-05
1.0949967925964732189e-05
1.0945638457873730501e-05
1.0936037232249230496e-05
1.0909713280154055621e-05
1.0870042865133613586e-05
1.0847509828478297885e-05
1.0837166031106306338e-05
1.0835100067810725895e-05
1.0867748023753298135e-05
1.0951993143033070423e-05
1.1020636985843553976e-05
1.107817049927741759e-05
1.1134886909740448834e-05
1.1197225919902212721e-05
1.1266156274582448876e-05
1.133871281945468769e-05
1.1409665624401954431e-05
1.1476537049736419945e-05
1.1536810649392628786e-05
1.1588912133680970428e-05
1.1628350605929213554e-05
1.165132869281940278e-05
1.1657907281143209827e-05
1.1654467416815333095e-05
1.1644229768176657009e-05
1.1608940347579327197e-05
1.1547931187833018529e-05
1.1506428054816250899e-05
1.1483305767358886252e-05
1.1469400944039153962e-05
1.1463332078349651501e-05
1.1486374591189592751e-05
1.154812351491755435e-05
1.2562882697673410514e-05
1.2472898310460648336e-05
1.2418554749455514897e-05
1.2394950155662714812e-05
1.2387655945797746389e-05
1.2402044690005308486e-05
1.249514754992034918e-05
1.2717125893213875376e-05
1.2896061841406966336e-05
1.3014222353472068333e-05
1.3082864645756122699e-05
1.3117567050890336765e-05
1.3133236971756432886e-05
1.3140676979160255094e-05
1.3146771979185626592e-05
1.3154569159992627589e-05
1.3163163000812411386e-05
1.3170504228130531195e-05
1.317331411967609049e-05
1.3170121422952903921e-05
1.3161565077213197941e-05
1.3148821726709910635e-05
1.3117680477285806713e-05
1.3019186046310281932e-05
1.2834732712087393671e-05
1.2687591264446275346e-05
1.2593712683790506804e-05
1.2548632841862867836e-05
1.2535467245821733094e-05
1.2538384362248135669e-05
1.2594189022941084774e-05
1.2802667845945778756e-05
1.3066655022738546957e-05
1.3273168327800098233e-05
1.3437556949849332959e-05
1.3579693461412818104e-05
1.371526554331681049e-05
1.3847481708387689639e-05
1.3967639838417170281e-05
1.4059490686275345967e-05
1.4110725436204405781e-05
1.4122210916499615895e-05
1.4110721903757785954e-05
1.4066106724138185938e-05
1.3902966554825016158e-05
1.3656407128011228101e-05
1.3498523362045335169e-05
1.342689924478058612e-05
1.3406171304755445554e-05
1.3413541946372744361e-05
1.3514946704827769715e-05
1.3696620294167342796e-05
1.3809909876667642749e-05
1.3863537370055452016e-05
1.3880514882166989908e-05
1.3880907957092163444e-05
1.3876581574042815522e-05
1.3870774519391914346e-05
1.3863128108048177739e-05
1.385128729197717491e-05
1.3825777099596189943e-05
1.3754527067347776709e-05
1.3566384991186642559e-05
1.335813907393181398e-05
1.3193963911324121675e-05
1.3077568509112270787e-05
1.3005568583797001787e-05
1.2967978525760135095e-05
1.2952186765329029534e-05
1.294577866616499959e-05
1.2946441018447116264e-05
1.2965439503004215079e-05
1.2993313587071119447e-05
1.3010202894468765909e-05
1.3016579337152116031e-05
1.3013833351276087198e-05
1.3004870033132723099e-05
1.2992785493914121484e-05
1.2976787301985358923e-05
1.2951543745848629791e-05
1.2900479738098700054e-05
1.2832210308676720301e-05
1.2770328411832855504e-05
1.2717228179998445826e-05
1.2673392164771778753e-05
1.2639596716992958534e-05
1.2614871879317507202e-05
1.2598275948548803379e-05
1.2588097176014211245e-05
1.2582111185436680649e-05
1.2578597871014046081e-05
1.2578902382380953412e-05
1.2588608552043979382e-05
1.2609053097636748245e-05
1.2625836064340092887e-05
1.2637052234935186042e-05
1.2643216321086823994e-05
1.2645359072179489522e-05
1.2644831522718202028e-05
1.2643219369081231928e-05
1.2641043405693074946e-05
1.2637934942817756592e-05
1.2631611871491587297e-05
1.262392474434872551e-05
1.2617048337496811054e-05
1.261054395806012008e-05
1.2603954122581932984e-05
1.2597380348215487879e-05
1.2590685423858553188e-05
1.2586230630790211672e-05
1.2591137497598964523e-05
1.260655787865734036e-05
1.2619813230440364587e-05
1.2630328477981420522e-05
1.2638207397679225572e-05
1.2642612306071080724e-05
1.2643267420276392476e-05
1.2640465956226867714e-05
1.2634849579065535037e-05
1.2627568060963837723e-05
1.2619280217325459019e-05
1.2610577765693187766e-05
1.2601007610038511629e-05
1.2588460713302078149e-05
1.2574748307877009517e-05
1.2562814008278164153e-05
1.2552486414409687543e-05
1.254325186246270775e-05
1.2534295389436407153e-05
1.2525315519633162454e-05
1.251754595445275568e-05
1.2516819917004869058e-05
1.2527044436162395192e-05
1.2536239023422138489e-05
1.254387697754738668e-05
1.2550028533632765979e-05
1.255469942620430655e-05
1.2557712053336574952e-05
1.2559114370651668178e-05
1.2558869959969940099e-05
1.2556178071801775049e-05
1.2551121619677286443e-05
1.2543698202490877517e-05
1.2534432976662321303e-05
1.2524153202460236781e-05
1.2513572486613067482e-05
1.2502989050064174036e-05
1.2492542353071077116e-05
1.2481539211621467113e-05
1.2470437517396546628e-05
1.2459748845273978262e-05
1.2449305792280989852e-05
1.2439134819833838966e-05
1.2428887568151945352e-05
1.241872811195083536e-05
1.2408708690776522812e-05
1.2398723117277903334e-05
1.2388943651326333984e-05
1.2379351681491811008e-05
1.237027042981253769e-05
1.2363073805695499606e-05
1.2359955615829029967e-05
1.2358679992233593254e-05
1.2358764614951893839e-05
1.2360171487784732253e-05
1.2362579210199420131e-05
1.2365267106669281295e-05
1.2367658634985284665e-05
1.2369225023627962185e-05
1.2369615620831272659e-05
1.2368612172174894669e-05
1.2365996281564424868e-05
1.2361880939414156508e-05
1.2356589792769620719e-05
1.2350577928124243157e-05
1.2343949350505287516e-05
1.233661899044326614e-05
1.2328516417364745455e-05
1.231915319571604468e-05
1.2306324982077868174e-05
1.2291764494469021568e-05
1.2275262244655490705e-05
1.2259884000398165319e-05
1.2242596299708408087e-05
1.222671433028308886e-05
1.2209011333266327323e-05
1.2192913680697675885e-05
1.2175369875208204534e-05
1.2159826913696941813e-05
1.2143183194048051194e-05
1.2128922800799121109e-05
1.2113737024271419216e-05
1.2100827858206023276e-05
1.2086694795987871346e-05
1.2074507966297261624e-05
1.2060670147665480557e-05
1.2048490275074043713e-05
1.2034430166203229334e-05
1.202217828498459561e-05
1.2008068379556343126e-05
1.1995999526187751819e-05
1.1982381345930695477e-05
1.197085410999567992e-05
1.1957581217897999371e-05
1.1946170221314607036e-05
1.1932682671725051353e-05
1.1920799822423136852e-05
1.1906741032765427724e-05
1.1894593123520912713e-05
1.1880455683024701465e-05
1.1868651984586386366e-05
1.1855051097047043533e-05
1.1843789663637554381e-05
1.1830627487826789854e-05
1.1819525059645101598e-05
1.1806225208513291484e-05
1.1794853757577129501e-05
1.1781167190684139779e-05
1.1769486649168469655e-05
1.1755827065467438082e-05
1.1744640251743472759e-05
1.1731680975504336936e-05
1.1721440985294013644e-05
1.1709384069029058086e-05
1.1699712510188046226e-05
1.1687880036448102815e-05
1.1678110609511627269e-05
1.1665755794192670053e-05
1.1655360462838628872e-05
1.164218171120113765e-05
1.1630946509764171886e-05
1.1616989452137231378e-05
1.1605183300198485504e-05
1.1590866345453981341e-05
1.1578944244438921663e-05
1.1564681360149021617e-05
1.1552884364520664792e-05
1.153869550556522112e-05
1.1526904294202402153e-05
1.1512502229746308694e-05
1.15004976261595987e-05
1.1485802381380028382e-05
1.1473580670885032655e-05
1.1458700318677993724e-05
1.1446239599965952943e-05
1.1431409922917104314e-05
1.1419082286319158604e-05
1.1404328255554612527e-05
1.1392276999260624693e-05
1.1377942654192461005e-05
1.1366306174108687535e-05
1.1352567359149808173e-05
1.1341605108080992728e-05
1.132860943727606972e-05
5.9341149950164795992e-07
7.571362374489167389e-07
8.7267281477475560812e-07
9.2449752846363018661e-07
9.9856081229620466568e-07
1.1606865028923772838e-06
1.3308105609382228301e-06
1.4278364356678848878e-06
1.475885886687335018e-06
1.548074859196944069e-06
1.6943468050631756137e-06
1.8242896497874150458e-06
1.894500642444330644e-06
1.9425476852404668374e-06
2.0360339226758769046e-06
2.2012201691142816763e-06
2.3402469110200311376e-06
2.4111736735036284199e-06
2.4543533642736572651e-06
2.5396960305894487548e-06
2.7041065777459282452e-06
2.8535642476799757004e-06
2.9360969540563428336e-06
2.9747113418828370634e-06
3.0339840424610751968e-06
3.1512367229464678524e-06
3.2784408551422417118e-06
3.3678216140221054645e-06
3.4254858967166611753e-06
3.4911403433053916272e-06
3.5860989402419971311e-06
3.6860195939838975637e-06
3.7571926190196052264e-06
3.797463153407566123e-06
3.8376559751072739486e-06
3.9115150512851581046e-06
4.0318578844546241823e-06
4.1849998503585844549e-06
4.3365406320283831363e-06
4.4497352043335447927e-06
4.5092682946395341645e-06
4.5372422687354329264e-06
4.5809091015998368941e-06
4.6814407952429862726e-06
4.8087457529459403088e-06
4.92116485030768532e-06
5.0058750316666873078e-06
5.0706163438797596408e-06
5.1313671094754062659e-06
5.2030282710956949756e-06
5.2934139259031078129e-06
5.3957724733040920932e-06
5.4916698059569260762e-06
5.5630719332792928966e-06
5.6031290368635022959e-06
5.6226462614644884714e-06
5.6473261925098090696e-06
5.7068495207551360113e-06
5.8558355650792349133e-06
6.0253285390542050428e-06
6.1470099693230920661e-06
6.2134954203626391585e-06
6.2547825572049209472e-06
6.3087773679987537142e-06
6.3888882963850440679e-06
6.4813519959836372688e-06
6.5666961039388260175e-06
6.6386661993383443031e-06
6.703806000838457416e-06
6.769299499084614901e-06
6.8336893072070501796e-06
6.8905373141415925383e-06
6.9355027008321556335e-06
6.9709683789987883271e-06
7.0106744732969609663e-06
7.0733201538200475867e-06
7.1737140507217266649e-06
7.3134293008584307525e-06
7.4760007853339256569e-06
7.632566206728117153e-06
7.7554237348667656558e-06
7.8319790013995912797e-06
7.8677506127894951328e-06
7.8784398502755696318e-06
7.8802634307714584157e-06
7.8853587467604204268e-06
7.9046443358772534773e-06
7.9595043894092604023e-06
8.0422119252935339828e-06
8.1237193743458520356e-06
8.1939307945910249884e-06
8.2469111052312947595e-06
8.2807965175750976252e-06
8.2965578319458354548e-06
8.3008601230189988301e-06
8.305382605071435828e-06
8.3228271656262338326e-06
8.3813025165407228938e-06
8.5537324062066844802e-06
8.7509727884028460287e-06
8.8918216610585958863e-06
8.9725974341148865513e-06
9.0086479932494676703e-06
9.0251959853519885094e-06
9.044625621849939392e-06
9.0798210865769991823e-06
9.1328641837851161453e-06
9.1989742772243240839e-06
9.2699395841948518661e-06
9.3364549817963705876e-06
9.390425011747050138e-06
9.4262813647532456648e-06
9.4435822728489800162e-06
9.4471995959033405846e-06
9.4454186329269048235e-06
9.4474972135083109517e-06
9.4628239700832817376e-06
9.5111878141332498643e-06
9.5742462283059382838e-06
9.6337717971657305327e-06
9.6852518458701179408e-06
9.7302540922874852601e-06
9.771912657691306841e-06
9.817204966314235052e-06
9.8706443812113016259e-06
9.9362265942483673803e-06
1.0015435071691448793e-05
1.010838185129863839e-05
1.0214295587336314389e-05
1.0330784101676143282e-05
1.0454323908285283152e-05
1.0578349413649004691e-05
1.0690972549415872907e-05
1.0777768047827340479e-05
1.0827474217371076722e-05
1.0840194841616583463e-05
1.0833149535642331657e-05
1.0815053625546542743e-05
1.0780110296525161699e-05
1.0762725263660339415e-05
1.0757332884759219106e-05
1.0784968568485742464e-05
1.0930498352161539932e-05
1.1129819443324144319e-05
1.1265799141556451463e-05
1.1349765186415710933e-05
1.1396997176402347664e-05
1.1420396282767775886e-05
1.1429384141680997723e-05
1.1430109737970538936e-05
1.1428883633523341201e-05
1.1430800078213140982e-05
1.1436218824794449538e-05
1.1441067460833990064e-05
1.1442287243665327554e-05
1.1438167367147641994e-05
1.1430708625902000241e-05
1.1420239952495284331e-05
1.1393380056165647155e-05
1.1359251155158376292e-05
1.1339878543313398204e-05
1.1329846476074146682e-05
1.1328632148426416278e-05
1.1367191186105656548e-05
1.1484069234042890227e-05
1.1591576051006493098e-05
1.1679546858539200088e-05
1.1755662390708491495e-05
1.1825765219861567677e-05
1.1893705021092128011e-05
1.1960252797379067837e-05
1.2024003779730631813e-05
1.2085492520011752293e-05
1.2142951968242460506e-05
1.2194151295338330476e-05
1.2233542701176696634e-05
1.2256666526710812068e-05
1.2262910312642411886e-05
1.2258046738371324973e-05
1.224736366655589921e-05
1.2216635562649348263e-05
1.2151962454577074481e-05
1.2102627365224522199e-05
1.2073456598171392886e-05
1.2057042401728602389e-05
1.2046918365483416351e-05
1.2056178585824184663e-05
1.2126007705454179835e-05
1.2254375821186122149e-05
1.3435225747934064774e-05
1.3319984572145935194e-05
1.3207776167666289283e-05
1.3134370983234973151e-05
1.3097755337596751933e-05
1.3085226899461265289e-05
1.308650349268571843e-05
1.3134749447427885587e-05
1.3288479091799048086e-05
1.3431938790175111767e-05
1.3530600505474928117e-05
1.3594772173108820454e-05
1.3637461183777297349e-05
1.3669850871173941137e-05
1.3699171260117236552e-05
1.3728676888236497917e-05
1.3759789628504140482e-05
1.3789705872470628867e-05
1.3815417980340195011e-05
1.3832157308285821982e-05
1.3837627857688840246e-05
1.3832173573986402112e-05
1.3821040384985520567e-05
1.3799962055114227589e-05
1.3738171731704700997e-05
1.3571103540214651803e-05
1.340125876740735927e-05
1.3288796463064490673e-05
1.3231080237515109146e-05
1.3212378122213354852e-05
1.3209854686899316574e-05
1.3243842067837708351e-05
1.3401834233089595058e-05
1.3678677277118616432e-05
1.3900887689091923289e-05
1.4074581582540643548e-05
1.4224320813679317379e-05
1.437218780051653087e-05
1.4527272417222655333e-05
1.4680517073565378273e-05
1.4808970402492053299e-05
1.4891589520949460366e-05
1.4921200975220039051e-05
1.4914075682117622964e-05
1.4881062306629326824e-05
1.4753640240124038594e-05
1.4476794096059609739e-05
1.4276645956645196936e-05
1.4175393382159867065e-05
1.4141698811394032615e-05
1.4136017973091637666e-05
1.4183695403203040348e-05
1.4336142807614183389e-05
1.4457011870989945084e-05
1.4528431233024844961e-05
1.4568012100668189946e-05
1.4592080872975459746e-05
1.4608652444289910857e-05
1.4618134385524141834e-05
1.4618562819375853094e-05
1.4610872984811581644e-05
1.4595442031343470749e-05
1.4553267891757030355e-05
1.442167956780855692e-05
1.4191718784852386576e-05
1.4001707575717183829e-05
1.3865031793178094445e-05
1.3778778008512937699e-05
1.3732383098182437668e-05
1.3711813825846588485e-05
1.3704232192390202567e-05
1.3701968793609352155e-05
1.3711576630689706181e-05
1.3729755304752212582e-05
1.3739385168892459001e-05
1.3740029295232029238e-05
1.3733399862467324395e-05
1.3722664157808914161e-05
1.3708451611348443979e-05
1.3686634307652996759e-05
1.3643979714254372506e-05
1.3573475259076913846e-05
1.3507132505519546601e-05
1.3448541161043455955e-05
1.3399224184631053973e-05
1.3358997425036832165e-05
1.3328021192485986767e-05
1.3305145418046860508e-05
1.3289418607206999212e-05
1.3279324504753574736e-05
1.3272978879262318431e-05
1.3269091359757837238e-05
1.3268676766633724968e-05
1.3275609578159297479e-05
1.3290050051708064699e-05
1.3301822907600926297e-05
1.330949321006337918e-05
1.3313564607212656873e-05
1.3314677697458214821e-05
1.3314005520064367343e-05
1.3312578547494341585e-05
1.3310494728574199627e-05
1.3307204359996811747e-05
1.3301110462767231065e-05
1.3294106020682969164e-05
1.3287428419794660797e-05
1.3280877091590693025e-05
1.3274255815696410613e-05
1.3267673539508531352e-05
1.3261278628467986935e-05
1.3257741354711291695e-05
1.3264747897017784966e-05
1.3281332118377816551e-05
1.3295408518080548162e-05
1.3306516639200736114e-05
1.3314393031515412536e-05
1.3318132871505659965e-05
1.3317647280142552008e-05
1.3313643515224414055e-05
1.3306933564605723228e-05
1.3298777833998910191e-05
1.3289760718191495753e-05
1.3280456649442753359e-05
1.3269373638060408529e-05
1.3254541120999866472e-05
1.3239986189213991076e-05
1.3227182803976836244e-05
1.3215999071412704827e-05
1.3205966207125034964e-05
1.3196268808176557779e-05
1.3186662142075194067e-05
1.3178381427564290354e-05
1.3177424011436473744e-05
1.3189896717072908754e-05
1.3201581899895858927e-05
1.3210603467881435366e-05
1.3217094646907115012e-05
1.3220961076375220317e-05
1.3222118285112883392e-05
1.3220536696476401837e-05
1.3216195075234633857e-05
1.3209373739151799136e-05
1.3200584463473667121e-05
1.319053151957886639e-05
1.3179781153792370662e-05
1.3168951196544022189e-05
1.3158406648738115162e-05
1.3148369405023299392e-05
1.3139062117894757139e-05
1.3130452657050466651e-05
1.3122327700494097849e-05
1.3114399990931928865e-05
1.3106386397958008758e-05
1.3098081644924013754e-05
1.3089351333330070053e-05
1.3080105668943239105e-05
1.3070468242464391151e-05
1.3060548302245471655e-05
1.3050749680373820256e-05
1.3041927764963133995e-05
1.3034434894212694033e-05
1.3028022651480664659e-05
1.3023273473764582881e-05
1.3020250043719325608e-05
1.301903155727646754e-05
1.3019318602850009787e-05
1.3020785942860000129e-05
1.3022574032712283854e-05
1.3024128740897871886e-05
1.3024783528262251321e-05
1.3024321633439919251e-05
1.3022501548601800333e-05
1.3019094981054121069e-05
1.3014383216614116212e-05
1.3008605885623700341e-05
1.3002195432339152151e-05
1.2995147819103257793e-05
1.2987231571989817504e-05
1.2978236722802925093e-05
1.2967509140143043168e-05
1.2953016410148303114e-05
1.293814723155937269e-05
1.2921270181505871367e-05
1.2905752900168912761e-05
1.2888386869682278091e-05
1.2872679841878125457e-05
1.2855135897888802734e-05
1.283926860893309032e-05
1.2821747495135922968e-05
1.2806154510213960354e-05
1.2789137580067878289e-05
1.2774426248348005566e-05
1.2758539112865949214e-05
1.274502649206046705e-05
1.2730136620349200932e-05
1.2717419384342942891e-05
1.2702928974472738649e-05
1.2690387969216837424e-05
1.2675871566151350844e-05
1.2663392842811107566e-05
1.2648886992288747142e-05
1.2636464715433156622e-05
1.2622104497733905277e-05
1.2609782064354986539e-05
1.2595262601720290239e-05
1.2582548850891200827e-05
1.2567376382185738477e-05
1.2553944277263277943e-05
1.2538217823139126474e-05
1.2524783913600383211e-05
1.2509421365998658971e-05
1.2496730274189519019e-05
1.2482285393054185296e-05
1.2470456379028709042e-05
1.2456654208618048185e-05
1.2445180297843680257e-05
1.2431352838380471443e-05
1.2419655563982580796e-05
1.2405403339784959189e-05
1.2393238676578368807e-05
1.2378689597605975012e-05
1.2366588002359503435e-05
1.2352296178417433709e-05
1.234070935105500886e-05
1.2327002351559535189e-05
1.2315829334078595971e-05
1.2302362823069555459e-05
1.2291291574507884861e-05
1.2277597853373870739e-05
1.2266255383094528265e-05
1.2252102803239947577e-05
1.224026481414780639e-05
1.2225577469579354233e-05
1.2213275039308055088e-05
1.2198157800226899555e-05
1.2185544404546707443e-05
1.2170255349949830447e-05
1.2157533477226946657e-05
1.2142217301483146271e-05
1.2129538458497066077e-05
1.2114067969019270786e-05
1.2101322884223203428e-05
1.2085664752480131527e-05
1.2072767895737660621e-05
1.2057019396505731592e-05
1.2043847943328899242e-05
1.2028032457358048634e-05
1.2014903086772252979e-05
1.1999107642347277161e-05
1.1986237137018612746e-05
1.1970758003613502608e-05
1.195825214243057116e-05
1.1943269006890377398e-05
1.1931346854067336936e-05
1.1917112981447598656e-05
6.0651302767649913377e-07
7.2171616916522627645e-07
8.8156269243767159703e-07
1.0062933439898716039e-06
1.0728474240347275048e-06
1.1467322043862340007e-06
1.2869243630378986726e-06
1.4639832673755520185e-06
1.5987681560690744216e-06
1.6769601520248560476e-06
1.7510951327129289707e-06
1.866681608324143038e-06
2.0136326747717776941e-06
2.1479880648047959909e-06
2.2314838877628220294e-06
2.2756715879602105594e-06
2.3419891105992439109e-06
2.4998896770550352444e-06
2.6688741561533115176e-06
2.7860640017907273415e-06
2.8903715852762966873e-06
3.0000433482205345412e-06
3.0862684265965721029e-06
3.1317481733476707729e-06
3.1681263556478254028e-06
3.2439762088503129471e-06
3.3888776750857581472e-06
3.5363248387301432718e-06
3.6317683612849512062e-06
3.6765025078764133052e-06
3.7212146034496027348e-06
3.81540624318382544e-06
3.9476616166034254369e-06
4.0635849592448532015e-06
4.1293619643400738783e-06
4.1641113301321344827e-06
4.2175030585576108304e-06
4.3425729307055034776e-06
4.5089594054792321462e-06
4.654985632710378454e-06
4.7637610311201827686e-06
4.8448197056107255616e-06
4.9246413552248233191e-06
5.0126629988865793443e-06
5.0935976375239996026e-06
5.1634080121307490967e-06
5.2422364731607228408e-06
5.340130514998723273e-06
5.444411016708535502e-06
5.5435381131743702337e-06
5.634859439088345507e-06
5.7153116232310914073e-06
5.7771698749960320995e-06
5.814897930686923304e-06
5.833373774363641271e-06
5.8505072411538343584e-06
5.8896834337162460386e-06
5.9925616169562753287e-06
6.1749339353723217152e-06
6.348672230151685119e-06
6.4802758528442950102e-06
6.5677527677236781728e-06
6.6300225189946451618e-06
6.6881104766240505294e-06
6.7528180683658503249e-06
6.8259499658095924295e-06
6.9070743739181722894e-06
6.9936938782321307338e-06
7.0788871041426656712e-06
7.1513322172835450355e-06
7.2029068609968425834e-06
7.2358871199016733575e-06
7.2637137086388049075e-06
7.3065445212594439485e-06
7.3789019303395541198e-06
7.4865229106370226824e-06
7.6259926267088256054e-06
7.7818292602675764608e-06
7.930387796224809858e-06
8.0504160907336226046e-06
8.1302529530289454636e-06
8.1717293554483463061e-06
8.1864645211570549835e-06
8.1929529370822511467e-06
8.2133349173394545114e-06
8.2644107683429214063e-06
8.343149102865973695e-06
8.436033089131397109e-06
8.5259341142616567905e-06
8.5981868489349564972e-06
8.6455949050731890595e-06
8.6693457574700262232e-06
8.6765042836845477123e-06
8.6765121204528794898e-06
8.6806114668019049746e-06
8.6995168646871949396e-06
8.7597303886704755741e-06
8.9076106091279230514e-06
9.0631929212406987551e-06
9.1888043169640319131e-06
9.2752860246887920172e-06
9.3297105683806244369e-06
9.3703756369240284805e-06
9.4172501651622432187e-06
9.4821463859696081885e-06
9.5651276938897984671e-06
9.6563288983162852696e-06
9.7428877449784322573e-06
9.8157160718534410221e-06
9.8712076058233566702e-06
9.9099569494886122163e-06
9.9338317503784948228e-06
9.944722359071725217e-06
9.9456906500500258568e-06
9.9407568299550446458e-06
9.9351352400642719095e-06
9.9326476942801629163e-06
9.9417074649667991793e-06
9.9891275422794488325e-06
1.0117162697436281245e-05
1.0253848178222923023e-05
1.0372461038231629331e-05
1.0465421243484654334e-05
1.0528071103906431918e-05
1.0561853476886994108e-05
1.0577955237333262916e-05
1.0595456671894948415e-05
1.0638032385158543918e-05
1.0744461148142122272e-05
1.0901206412142909585e-05
1.10765251376204514e-05
1.1246490484564605501e-05
1.1384943700624506127e-05
1.1471603185472546558e-05
1.15033663355493553e-05
1.1500317382743611476e-05
1.1482226874697115546e-05
1.1426779356896445976e-05
1.1377947585120976712e-05
1.1361629773729885e-05
1.1364108738998564074e-05
1.1437969761995411423e-05
1.1659034830141903452e-05
1.183529696054344023e-05
1.1936709632111925023e-05
1.1985660979611509807e-05
1.2003549425508917267e-05
1.2006844657065739569e-05
1.2006990530788141011e-05
1.2010314117687751243e-05
1.2025787589329666808e-05
1.2048014885378862792e-05
1.2062728703733941528e-05
1.2067138949299071018e-05
1.2062083991085463237e-05
1.2052433881305122003e-05
1.2040630450792767455e-05
1.2012225847306803175e-05
1.1957730857921939781e-05
1.1920730156150308301e-05
1.1902016477610400831e-05
1.1892072377036508912e-05
1.1898110918028182123e-05
1.1970107291838649275e-05
1.2108905053588344666e-05
1.2217081446804367183e-05
1.2301333017734359868e-05
1.2374217994010870702e-05
1.2445006855528050767e-05
1.251877446180306421e-05
1.2597035202882521355e-05
1.2678342686804798469e-05
1.2758213362754573442e-05
1.2831765611188599075e-05
1.2891856190838222828e-05
1.293275367636779967e-05
1.295060930663741328e-05
1.2949833492161054875e-05
1.2940025321894496903e-05
1.2917668555286435596e-05
1.2852283481255256204e-05
1.2768868991757762141e-05
1.2714775913198641914e-05
1.2685353591560273777e-05
1.2670111467648666537e-05
1.2662072284953110389e-05
1.2678366346185832383e-05
1.2760068441976922272e-05
1.2869531966506147399e-05
1.4235820670623792279e-05
1.4100520656357183949e-05
1.3932267619122756206e-05
1.3812176014350614146e-05
1.3742619779076117135e-05
1.3713057562204508533e-05
1.3703722383869345661e-05
1.371226165574015551e-05
1.3782032364657887541e-05
1.3933951384402499634e-05
1.4060829058942273618e-05
1.415941708591186691e-05
1.42361798137211017e-05
1.4298917984450786303e-05
1.4352135921324535119e-05
1.4398812188932463691e-05
1.4440448569276123584e-05
1.4475431585308716454e-05
1.4501728964671046641e-05
1.4516215961044082785e-05
1.4518196346756266011e-05
1.4509400427967657544e-05
1.4495455717401570426e-05
1.4466531955972074792e-05
1.4379936111967636439e-05
1.4203623555600699513e-05
1.4065070858375668618e-05
1.3982249536915545898e-05
1.3948116385097056376e-05
1.3939661541897637088e-05
1.395661735972896449e-05
1.4068018281807982567e-05
1.4392055224474958498e-05
1.4694447515844114881e-05
1.4895440472124490123e-05
1.5018279253629878133e-05
1.5102614350321658012e-05
1.5185784726443210215e-05
1.5290137517851985527e-05
1.5412950077928182647e-05
1.5530263215144042463e-05
1.5614442312581031693e-05
1.5649309566623815631e-05
1.5644511725457443491e-05
1.5615121822234570071e-05
1.5501591159562385578e-05
1.5225654457516170909e-05
1.501523708945713776e-05
1.4910680311847361243e-05
1.4877394313742527796e-05
1.4873726426909141145e-05
1.4932983287801262722e-05
1.5115193591761668835e-05
1.5255560859101720712e-05
1.5332416882299458317e-05
1.5367358824620716074e-05
1.5382543452659761766e-05