/*--------------------------------*- C++ -*----------------------------------*\
  =========                 |
  \\      /  F ield         | OpenFOAM: The Open Source CFD Toolbox
   \\    /   O peration     | Website:  https://openfoam.org
    \\  /    A nd           | Version:  12
     \\/     M anipulation  |
\*---------------------------------------------------------------------------*/
FoamFile
{
    format      ascii;
    class       volScalarField;
    location    "0.01";
    object      k_0;
}
// * * * * * * * * * * * * * * * * * * * * * * * * * * * * * * * * * * * * * //

dimensions      [0 2 -2 0 0 0 0];

internalField   nonuniform List<scalar> 
75962
(
3.0502314584432180483e-05
5.2668660409145736344e-05
7.1151322580616620781e-05
8.8040260009307328738e-05
0.0001150831150076751184
0.0001545859149256349535
0.0001915165659382870385
0.00021207765423537125026
0.0002232800369668610401
0.00024024885487389512377
0.00027831009129575582338
0.00033324822060812320495
0.00037521945532426167948
0.0003965198333362774958
0.00042635014820474771832
0.0004784309516357488387
0.00052838516653966110734
0.00055945580242161357335
0.00058620083827334564051
0.00063502572901312167881
0.00071249193368506361004
0.00079636328152167393853
0.00085851830257555408494
0.00089089596628768815724
0.00090880412101869434156
0.0009365571005044150913
0.0010055169487345539444
0.0011116001764795422659
0.001186955867671302383
0.0012407313027733028656
0.0013030712963270820598
0.0013760343099758192559
0.0014331075444422864806
0.0014672656384332129122
0.0015086246112075640206
0.0015873364609399788494
0.0016898297810153711969
0.0017814361295011497781
0.0018484121525168058404
0.0019055888012110826658
0.0019815883570489861362
0.0020879394498002855872
0.0022014181503450130396
0.0022888630766562992856
0.0023491546486459542221
0.0024155069915114215674
0.0025132880584841834487
0.002634230119480883512
0.0027491998629790770012
0.0028347490229258249898
0.002890574671961143767
0.0029353197495019600974
0.0029898025270185635098
0.0030644680851726964661
0.0031549958843166284531
0.0032495958631541077381
0.003344533707296797314
0.0034512513669507816245
0.0035839291948834292936
0.0037420381954095379914
0.0039111517577973447038
0.0040766946191851637094
0.0042311477439149185881
0.00436404604874726567
0.0044595165149652104056
0.004511380080089217974
0.0045389793996029222101
0.0045787706278938352517
0.0046740845864336067611
0.0048274007974347258113
0.004979363259160044658
0.00511278923696700284
0.0052278641797118656498
0.0053304291252116017472
0.0054248685938401196641
0.0055143519657033348083
0.005606175177082864565
0.0057122444874723983868
0.0058432873155018928008
0.0060007992551360765654
0.0061704635815465133653
0.006327431994912891336
0.0064523958854943832056
0.0065403559063473195451
0.0066030539913230568497
0.0066617554217286252191
0.006737423733696945409
0.0068440246774306651503
0.0069835391476262206889
0.007145675003149933209
0.0073104994402155166339
0.0074563853405260243148
0.0075651818436479195684
0.0076287423581428400257
0.0076563856191850529834
0.0076714536461185726599
0.0076997227962730925913
0.0077775500405687222547
0.0080183583529391585371
0.0083551472269557027633
0.0086195778526442258516
0.0087941081174201917586
0.0088934430261894143604
0.0089540517261660398235
0.0090136195837538669179
0.0090991815506243547279
0.0092221366388268825875
0.0093791928912741115432
0.0095551707316391051861
0.0097288775136715258118
0.0098802667929189826046
0.0099941923368292301388
0.010065458753513481863
0.010101777704407484751
0.010122119350830729653
0.010152208687013608568
0.010221171580198711373
0.010375895314395583782
0.010561299542186311159
0.010741602159124317289
0.010895914504173213194
0.011016062860944680207
0.011102967513111659109
0.011174132514632237681
0.011249380468873970695
0.011350629956214641422
0.011492514991147225606
0.011684325333403463437
0.011931122062621183147
0.012236112520320450298
0.012595758609943509196
0.012992136426733373947
0.013381438769724062973
0.013701910062706800994
0.013903489639124758104
0.013978592971971843043
0.013982199550234105517
0.013943628687993469065
0.013825834061905357963
0.013766688388488396849
0.01376420049589835784
0.01380621686873434277
0.0140169267415871171
0.014402837924634216346
0.01469678062448651068
0.014902218511945713314
0.015046190144371602432
0.015152372844720023853
0.015244511287058606572
0.01534191429377736518
0.015453736073732160169
0.015582186535601245253
0.015718738805899336308
0.015841785501583993678
0.015932223225304388559
0.015976322025130055421
0.015985394162786728534
0.015976811915211081017
0.015919238363595780705
0.015824647036439733888
0.015783209649624794363
0.015781154345227688812
0.015807021012136053539
0.015937336854141188197
0.01622191436968132075
0.016461595369172476316
0.016666756665931016512
0.016866813887348983819
0.017081501099500167457
0.017315660530425481395
0.017562221691085493774
0.017806645558603596824
0.018041671006563033547
0.018258485325366169416
0.018450485131430313657
0.018601272546326735879
0.018696744824930035256
0.018736419358810148944
0.018741855122798863065
0.018725765822024016682
0.01863234101693470729
0.018462446391868083534
0.018362123434607316441
0.018326677413109952047
0.01832430844992720409
0.018347122510983415733
0.018460069251813451124
0.01869292596444569951
0.023389103791018835132
0.023093035143375736234
0.02292994985521446677
0.022878783362939757867
0.022885210447437544928
0.022970076376482791852
0.023348362481362853332
0.024219935653738856179
0.02494327556690626585
0.02543999607396138507
0.025745024093903973172
0.025915163542778174577
0.026008475934595487455
0.026068762201939543743
0.026124657745860143526
0.026188767336526707491
0.026257358480883941781
0.02632187905921709245
0.026369033425455833813
0.026392688746228316204
0.026395174658184313021
0.026380819812240483002
0.026292598333061332344
0.02593577083759145141
0.02524272039975397619
0.024704487607954298684
0.024377716962536748885
0.024240436346304065907
0.024225308195251572807
0.024271348799123588363
0.024523576527699562921
0.025381806262250363598
0.026484631525073062952
0.027378652949939567829
0.028113092594282032555
0.028760247103777100697
0.029379797837459066534
0.029982690609105581286
0.030531477148417335288
0.030957084029699669103
0.031207894251538387254
0.031290277574996097631
0.031280367301613543063
0.031133444547531134716
0.030473308980007877966
0.029463973676148218217
0.028850822590694137626
0.028610290159949709754
0.028585435104966819275
0.028676464757219442131
0.029165405256489432273
0.030000802293974501017
0.030535803062480840198
0.03080121642395215395
0.030898211869252411449
0.03091914041426519974
0.030920678603098845222
0.030920146379705845674
0.030917591177275549619
0.030903108135382998528
0.030834199893950812316
0.030567682957392559862
0.029791416675836231848
0.028940279706476990801
0.028290067483807045112
0.027847989216954430192
0.027592674310886966538
0.027477348536031818288
0.027446826187030721328
0.027448750688383476148
0.027475104351020945143
0.027576571633051449178
0.027716631801135517554
0.027813564488980615369
0.027871374542440052052
0.027896833921443538878
0.027902329693720244463
0.027900523040489177973
0.027886832876730587721
0.027836881181809124131
0.027678011078589831451
0.027446287274616034541
0.027241722827479986774
0.02707309950864138573
0.026940957648396799545
0.026847196241266142736
0.026786425104569702715
0.026753821473364851335
0.026741654871105025038
0.026740612669536971413
0.026744201807974803814
0.026759592401547238616
0.026812264608874310928
0.026909582265734182521
0.026991358013119710196
0.027049906457588486497
0.027087276883364163477
0.027107387596373867106
0.027115511384696103225
0.027118176608501437519
0.027117820175732412075
0.027113592254487742239
0.027096767624207960395
0.027076446511317176641
0.027062978273338533786
0.027055138240621667833
0.02705115144556798773
0.027051155298978689367
0.02705393416957567812
0.027068832418942541385
0.027125716492380224504
0.027229093825410055629
0.027323885755701785016
0.027407293209228161812
0.027479538191437159061
0.027536873303863715345
0.027577997316282097662
0.027604111386086243457
0.027617907423621659152
0.027624228144069749857
0.027625736399875380767
0.027624714177592133574
0.027618817514617387265
0.027598582691698951563
0.027572033124100878143
0.027552637408119768497
0.027540682871370125717
0.027535172304260616821
0.027533622007983617891
0.027535250236250034123
0.027545164587807691864
0.02758795843565229472
0.027679365611416303916
0.027764941495029428487
0.027840989970951125071
0.02790721881794488643
0.027963940735629057299
0.028011395369132188055
0.028051276062681922141
0.02808496267645859204
0.028110058858540634685
0.0281275139446120169
0.028137175923000749128
0.028140684348463503722
0.028140669471951564734
0.02813913734327668642
0.02813634614158334879
0.028132209489155936277
0.028123409517758185538
0.02811226084390965746
0.028101688753162532008
0.028091721262759355993
0.028083295314082067085
0.028075508088531476308
0.028069449453169286607
0.028065402254891787942
0.028062680390238823464
0.028061746746316527934
0.028062156186302374128
0.028065136554106587946
0.028076830937336341026
0.02810725183412237857
0.028146392292757678455
0.028192175341887993484
0.028244418486024536891
0.028301414030634738234
0.028359368237781679145
0.028414977448110292912
0.028465123311436576342
0.02850765706295870297
0.028541344320022574155
0.028565363836536586395
0.028580823113796290091
0.028590030047688765047
0.028595968414644352962
0.028599853455391299056
0.02860168590874970912
0.028601210765194440971
0.028596019006901528259
0.028575618089163194735
0.028547845315896713814
0.028511681084641898182
0.028481480099694065494
0.028443335191789487215
0.028412781187896071766
0.028374741491550087291
0.02834478162979469848
0.028308116028725547469
0.028280036341907011099
0.028245410026252186497
0.028219988508899312984
0.028188301190657811396
0.02816558584124920217
0.028136185361159065516
0.028115601191064480691
0.028087698894418089424
0.02806820581178839924
0.028040650801883035964
0.028021993139318173566
0.027994792835811611875
0.027976885020432693679
0.027951383260094189026
0.027935472214121213202
0.027911665069846325338
0.027897242810199836954
0.027874119273812340142
0.027859564530191695958
0.027835679630245014488
0.02782109576931468195
0.027796968686784370717
0.027783009296031266344
0.027759663816592453772
0.027746442836121071318
0.027723874673590446355
0.027711014695568119554
0.027688317290258744607
0.027675309417949014307
0.027651952785235963533
0.027638111849738789677
0.027614447891928583373
0.027601250324777143463
0.027578137857154683132
0.027566101938788587639
0.027544033429233019672
0.027532217439393508879
0.027509926591598322931
0.027497715125237898875
0.027474257687681514356
0.027461321782985579493
0.02743671020099928276
0.027422635495570352876
0.02739683668130411115
0.02738189035213927161
0.027355378011149289463
0.027340107991629981898
0.027313513179155899518
0.027298272054990184443
0.027271538458784605474
0.027256115675047109387
0.02722848834027975784
0.027212505453182659482
0.02718423128284804674
0.027168151744484045351
0.027139866242462902524
0.027123193790987966401
0.027095170905976514314
0.027078641377518749417
0.027050064388306361424
0.027033644774548417494
0.02700560847086518404
0.0269894696168084397
0.026962300303967009357
0.026947155220348861099
0.026921134267052511391
3.5420956300940931269e-05
5.7719217103030981387e-05
7.6938693259968326545e-05
8.6579964110787798999e-05
0.00010114669637333131055
0.00013701730375319839516
0.00018064372078929744124
0.00020795551738478530723
0.00022194636218508955621
0.00024426427318915364941
0.0002929697026519893473
0.00034038847580227150512
0.00036799066575978731141
0.00038736262787097687195
0.00042579460102342336827
0.00049805299216620533501
0.0005634211284454553742
0.00059904841202775352405
0.00062204095946706637176
0.0006669273565513635137
0.00075641795926975738309
0.00084310359419174191967
0.00089419768221733742213
0.00091976443390075451716
0.00095851260895100454454
0.0010357775877418778313
0.0011227968267231622744
0.0011863547154741410118
0.001228853152967552707
0.0012781251762679080031
0.0013502761348070618612
0.0014279709566810724463
0.0014849989338244580419
0.0015186724859295838881
0.0015529470781794679421
0.0016151572862934979007
0.0017180083875593808902
0.001853526127763241698
0.001993351479436464898
0.0021022855968697226614
0.0021631515080593462057
0.0021949379313287191093
0.0022420995353849273654
0.0023453946401418451252
0.0024777133123361719941
0.0025981890876622362914
0.002692507388110442889
0.0027672136186000584682
0.0028382052189858050784
0.0029214453926791027205
0.0030266438786508294799
0.0031478629740988436567
0.0032647513118160996146
0.0033555380132859980932
0.0034106112598196141987
0.0034413292749506897358
0.0034778004102237101113
0.0035567767060966917411
0.003750271403077564715
0.0039768926585028703882
0.0041463091148503921496
0.0042448451305424099098
0.004311112945353823625
0.0043960666760518296581
0.0045181127199929648972
0.0046586717224631462447
0.0047904132573063171879
0.0049036268596114422624
0.0050068890885668296958
0.0051111196278844934354
0.005215985621630138229
0.0053129065698459352479
0.0053940144728452368503
0.005460585122187478456
0.0055329014902876982526
0.0056413576860892223827
0.0058115894332079814574
0.0060484402013945056525
0.0063276103446779363715
0.006602787458986639213
0.0068263867049394742412
0.0069740777414579891574
0.0070523580470545684656
0.0070858923097208131175
0.0071015359656646905376
0.0071196542169214916199
0.0071591606540774982426
0.0072601734809476644802
0.0074127191569070991981
0.0075676753831726058935
0.0077081621903470924281
0.0078217997266687207952
0.0079019765409697670377
0.0079477733418472345378
0.0079703796366554866687
0.0079913205074479843476
0.0080349056678769483625
0.0081566468316056611049
0.0085046031029218302488
0.0089124765123018232643
0.0092160865506863906549
0.0094017591211541275131
0.0094962911335935030338
0.0095487313986099275898
0.0096039999642627930931
0.0096893606665590294863
0.0098117088548236516821
0.0099636524105051020583
0.010128899003024447248
0.010287077776631181614
0.010420075887851633356
0.010515538108474135545
0.010571922551767998569
0.010598790852914654129
0.010613179343703578114
0.010635019244211440029
0.010685580720185657716
0.010810460202381301856
0.010969202997158249147
0.011120921253611292315
0.011255912091980695491
0.011378311273511031859
0.011495184557512113169
0.011622046315328333349
0.011768937148061296011
0.011945358654220005964
0.012155395659136560699
0.012399615812647814608
0.012676046473742336868
0.012979573110723254675
0.013303296479514151521
0.013633491923043455224
0.01394182514561753683
0.0141903853820416221
0.014346136242740073485
0.014404484453569075045
0.014407196847697601935
0.014377018131383367816
0.014301181897654282119
0.01427561349085672282
0.014288734157434777872
0.014396288463823923853
0.014825180335834801243
0.015408046766441366865
0.015819567297952329132
0.016082496702431857416
0.016236260206843117909
0.016317435899188229009
0.016355411313318721916
0.016371562174005638984
0.016387404122564095538
0.016419043352077961756
0.016466080872525688111
0.01651334764764954971
0.016548364229432815931
0.016563848201817370914
0.01656488860293469853
0.016553639534393076865
0.01649373602777804218
0.016414553692457090062
0.016382155018100034299
0.016382061368251002453
0.016412419519028977055
0.016561650058075392394
0.016942727895093306206
0.017298972829946412944
0.017596866256960826819
0.017857535543298771324
0.018098469648138361399
0.018332181727764223361
0.018562328396526928814
0.018785334150108801143
0.019002976758767258642
0.019209458664641004128
0.019397192147188935252
0.019547708592087761209
0.019645916620831423843
0.019689092401573748264
0.01969547696314512264
0.019682612519164081888
0.019606243887923254648
0.019424604139694368748
0.019297967154694211506
0.019241993211933032526
0.019231431074807927434
0.019242245844914497577
0.019312599782266882953
0.019573044409762520301
0.020020711718880219304
0.025376882772072804906
0.024980992715945088412
0.024601887971425959872
0.024369708711763464482
0.024273030718063380584
0.024262909806841023719
0.024301613178089962602
0.024514737709240837921
0.025127326113115952544
0.02571024011104821802
0.026127431433443794317
0.026412575249049236731
0.026612704056797081842
0.0267707653244308591
0.026916037908400011758
0.027062902169946841113
0.027218273996871430315
0.027371632832796272822
0.027511053004608727185
0.027617056374288986159
0.027679630913083615867
0.027699111160819044064
0.027695531852669527662
0.02765133559476736988
0.027443617591548681578
0.026818832733691271714
0.026190054163492567513
0.02579030833441258927
0.025603894704974934637
0.025567507057138786492
0.025593111162399054259
0.025761715910696106335
0.026420956118419856168
0.027571153353215183818
0.028527015685078541823
0.029299078304854935667
0.029977472184044052367
0.030648399805915587518
0.031348837753005114048
0.032041694204912062049
0.032630089755121889639
0.033023592623224400089
0.033191331393859754839
0.033205842149915183736
0.033114411705954888143
0.032611480459331890214
0.031463190491467826759
0.030664092665321128484
0.030295480241839877616
0.030215190916772386581
0.030251402585124067407
0.030511211908523992037
0.031219405770592578014
0.031788614843824933298
0.032135919858216205336
0.032337555018146862951
0.032467808949587374789
0.032565308479488533355
0.032634449960970063342
0.032668298004095479292
0.032672242956683521242
0.032648796553939589404
0.032512946607651922737
0.031985779926163249165
0.031034864151209175936
0.030270920617783664275
0.029741987045642927917
0.029426968018231091512
0.029275414744007664108
0.029225412906996196122
0.029222718521828984495
0.029236843176290740892
0.029299011053423702766
0.02939900115527602914
0.029466577082980071473
0.029501865346321688721
0.029513185242431520111
0.029513940904991861625
0.029506044986155020859
0.02947058708731179269
0.029349190225954415595
0.029110519213410041006
0.028890925486506579406
0.028704274429074371627
0.028555563545211406357
0.028442567526190107308
0.02836448557560828504
0.028315125241339830081
0.028289316946505868589
0.028280003456296096132
0.028279168742381937535
0.028282145920985331256
0.028294452083149759097
0.028334810558712179157
0.028405816837713402517
0.02846518297846156037
0.028507221925534342866
0.028534008383148682514
0.028547944093764130585
0.028553844531648095439
0.028556283122202749669
0.028556288438238080357
0.028552411128817695857
0.028538731853935711547
0.028524134454239766928
0.028514400212561304138
0.028508803186489413417
0.02850633429250999662
0.028507023044686555929
0.028510979066848230606
0.028529172599826103929
0.028594327646183866076
0.028702143802015630397
0.028800417366713453038
0.028886972384264179847
0.028960456674357471646
0.029016681596805232735
0.029055023685632067748
0.029078193634218294644
0.029089386990012365553
0.02909387177998364743
0.029093937883416350759
0.029091954810005156429
0.029081336638455929783
0.02905338802355992428
0.029025874985070341389
0.029005747544156346845
0.028993329455710408621
0.028987616166391373673
0.028985834797775632266
0.028987218274788773692
0.028996845058385879723
0.029040069481442335603
0.029142463697517731469
0.029239871606488658518
0.029322763427801497305
0.029391284410142711619
0.029445537598522506656
0.029486458686857321132
0.029515610412144024921
0.029534453333374992984
0.029545254951102151858
0.0295505207153322208
0.029552829353141855245
0.029553557546428309982
0.029554049043436243088
0.029554511428107096971
0.02955484845156994278
0.029555508181350897273
0.029556424428369882512
0.029557292716859636522
0.029557869971267476672
0.029558112622253378265
0.029558213073734795895
0.029558381276531289078
0.02955857685670988319
0.0295592265477639983
0.029560402104102396353
0.029563347705026186973
0.029571398189340354634
0.029585758623080698343
0.029605109613798127888
0.0296320697065046261
0.02966706922099198937
0.029710513925837046811
0.029761024229269097269
0.029816835063040024456
0.029873529093730526174
0.029927971503221781346
0.029976431306176373748
0.030017362636474431009
0.030049417988239648242
0.030071704773014806128
0.030086104632142150056
0.030094682637078179477
0.030100506951812863732
0.030104465078391533239
0.030106074672918179541
0.03010456257942092928
0.030096773150160009702
0.03007292547296957011
0.030048313570898359942
0.030014951014210068669
0.029988210845150804762
0.029953088286559171466
0.029925916736972483362
0.029890491957149573077
0.029863077004682998805
0.029827889457837469117
0.029801131934420257985
0.029766681345029515071
0.029741435033033777197
0.029708921935986499357
0.029685741241849635669
0.029654804743228329461
0.029633239692995024667
0.029603244069020984153
0.029582560908487896822
0.029553035587471295637
0.029533321895096397575
0.029504382666991048334
0.02948536955215137409
0.029457613814659163592
0.029439918503035702319
0.029412910384393899099
0.029395649378972803917
0.029368335748632380666
0.029350358297088523923
0.029322321428666628385
0.029304986231766083637
0.029277895093430449103
0.029262013185635211976
0.029236329770765956404
0.029221409445869952343
0.029196202965446244743
0.029181510117088260009
0.029155997931225318548
0.029141125357741822638
0.029115053584747311449
0.029099422297269670473
0.029072836124881866471
0.029057482638572006833
0.029031096388678817588
0.029016404240821060123
0.028990680923911091305
0.02897600553487212488
0.028950031756123824345
0.028935279695356943414
0.028908562544026038255
0.028893637735163572172
0.028866379455125736747
0.028850956263104857863
0.028822928661999071276
0.028806784857872930888
0.02877775462720965835
0.028760731918443797894
0.028731144190754287493
0.028713683317317325455
0.028683984971649090223
0.028666836972250701182
0.02863667446802280539
0.02861962118949826564
0.028589002591444555301
0.028571621323929437264
0.028540874984447728996
0.028522394154159916996
0.028491340121593492635
0.028472834294234687647
0.028441401577555466829
0.028423456553908654776
0.028392638993653750851
0.028375228345572586774
0.028345117734949461935
0.028328338753527540494
0.028299199591342673321
3.5300149272857987844e-05
4.9985244717752921569e-05
7.489795820885960056e-05
9.7829315165239109095e-05
0.00011106833332183232185
0.00012681200609982528032
0.00015999987792666419827
0.00020727406409076865675
0.0002473009969552980949
0.00027251609775227170858
0.00029766033867752595809
0.0003386900942951336568
0.00039455022129962860102
0.00044943714589400332636
0.00048586782202411020037
0.00050624933081485365763
0.00053685445118457127828
0.00061250882406002496797
0.0006992987229066774434
0.0007629383655621456645
0.00082156146198536386758
0.00088571723188854531612
0.00093846615333641983814
0.00096787348617083336297
0.00099247082201654908407
0.0010427872891892008955
0.0011400338502854461507
0.001242887242573175767
0.001312303751535015767
0.0013467547125112818828
0.0013818838990835337344
0.0014544123699719050877
0.0015578966073239921154
0.0016514884531265330413
0.0017067235385400210054
0.0017374243451860292824
0.0017844521217892555034
0.0018944917215545291171
0.0020456797554572578486
0.0021842773541424003944
0.0022926048619074661412
0.002377274772876655437
0.0024615185311730502019
0.0025536737336705993273
0.0026391987284587040997
0.0027151870346426337961
0.0028031824157817046214
0.0029139700076424050398
0.0030338769854034134017
0.0031498326938611581789
0.0032583991749217176663
0.0033558299569530348865
0.0034331466789249715649
0.0034839008969930027222
0.0035132208630805168356
0.0035410045132263615227
0.0035943419868100967736
0.0037257744697064927239
0.0039612259051468225873
0.0041939059194952103826
0.0043779625120789079223
0.0045069553650931943808
0.0046043851387184584964
0.0046975693760186679887
0.0047999061606303905503
0.0049134915331224132684
0.0050385350370704840711
0.0051725605628437035938
0.0053062180173442611425
0.0054228580001931770901
0.0055100886762385441198
0.0055707416036771106177
0.0056240016609919001034
0.0056999475493228583811
0.0058219048730321146246
0.0060014201068256346414
0.0062360048979835146568
0.0065029316684752707864
0.0067630937301602798636
0.0069792278252656580681
0.0071293521552892027623
0.0072153763516345590517
0.007255984560387451765
0.0072820056782942656215
0.0073306109183935872983
0.0074300593407942497337
0.0075753933054995828064
0.0077446046783010468254
0.0079101090993733413903
0.0080486656636784593977
0.0081486805091132170215
0.0082106058137709544281
0.0082435414013550135232
0.00826151477970746978
0.0082837122272561673764
0.0083307598696714790093
0.0084553106490067725387
0.0087517401832977511494
0.0090700855866134803135
0.0093360340902031244831
0.0095286467649272933722
0.0096595373519358408709
0.0097629706885925017501
0.0098774801913471925452
0.010026105838787061075
0.010210329229345838087
0.010413191751976630731
0.010610878337453402698
0.010784310281421126063
0.010923372300285647679
0.011026712147025849106
0.011097292148513395946
0.011139356670938370397
0.011159690308760669697
0.011166775465365074912
0.011171904205648638606
0.011183449012531697722
0.01122021916725096137
0.011343311583637549766
0.011651910423381190915
0.01198621725216465414
0.012284630146191277342
0.012526791614197780103
0.01269822575816842089
0.012799878646275608327
0.012858016823619197039
0.012919347268821587682
0.013041644345838500005
0.01332110616651045569
0.013728391876094273027
0.014188530512647156909
0.014643205192786676663
0.015024481555011166486
0.015275866907357040989
0.015384307413527545383
0.015399477686399074688
0.015371949159891913281
0.015242610623416844376
0.015131747494285441649
0.015111882616367762477
0.015148787902050712267
0.015382603867665309294
0.016021999723635872021
0.016546720040040655691
0.016862176411086698957
0.017024761843909320264
0.017094094999396122064
0.017118467448590270891
0.017133597038585728772
0.017161199081547371531
0.017229867395194182339
0.01732495238846225305
0.017403129021439110724
0.017452258114535698641
0.017471086099771566263
0.017471355861512782165
0.017459545159203289366
0.017395278240052425983
0.017254642859197096005
0.017167874644941929357
0.017140118495475184512
0.017144751146139832615
0.017200979031152349719
0.017451174524632476204
0.01789903195883760581
0.018257785760781245626
0.018543703477991984457
0.018793673254961670155
0.019036760263118106956
0.019289557934492829183
0.019557564697410427523
0.019836583550927901903
0.020112411157779428589
0.020369616933100596901
0.020585337360557193903
0.020741155229305564822
0.020824627162686560472
0.020849243868493537446
0.020844835528495905819
0.020799449672035980052
0.02061591747260793292
0.020377610812693874864
0.020238028035277522143
0.020182411577496933014
0.020175674162160053826
0.020192208525132454566
0.020283537501685874188
0.020581094616223153532
0.020967699990723034226
0.027066978904437006409
0.026593537072814959349
0.026004428935356125457
0.02560135152766059366
0.025386576823380111595
0.025317275057820928796
0.025319479558803422575
0.025385765976373823177
0.025679598433187768303
0.026285189637344070351
0.026803415077655635967
0.027217619642905373223
0.027548763534395732944
0.027825057685514003464
0.028063889559925888489
0.028277908377552927327
0.028474507266884559187
0.028648435619800724505
0.028792106112194893602
0.028892618836449123626
0.028945888624992213711
0.028957246565754959228
0.028947618204659301272
0.028876837128296500845
0.028574866846296440026
0.027919189729434891467
0.027416564754098319417
0.027133046199339930921
0.027038094316348224022
0.027041596101966377391
0.027143533635229231266
0.027616653572784533033
0.028946787287774271291
0.030225708402899426064
0.031113155979127785772
0.031685034431497983987
0.032095584014665438921
0.032497137537565189136
0.032984475888280781475
0.033549337269761718427
0.03409270644187861049
0.034497037575972035184
0.034692069717232314197
0.034720138710849592079
0.034646806463385554364
0.034206899166078462426
0.033063616197114092943
0.032220263082934130772
0.031837543128987878804
0.031759374688025046596
0.031805127828384086031
0.032116087566937172315
0.032955884811729375949
0.033614782945830597172
0.03399106120874982595
0.034177183372918903959
0.034272555927679554388
0.034333733927243433037
0.034378646828799229451
0.034400177747683918783
0.034401856587253358544
0.034376826634450033393
0.03423976919106153094
0.033718879788294388311
0.032770697398971572467
0.031998823314478980206
0.031451712543269838562
0.031111334647909969636
0.030931781706304881108
0.03085636629834893549
0.030835519683846065314
0.030836650382797391179
0.030845002315365521728
0.030871908714799337764
0.030922077547802497011
0.030962545937987528966
0.030987177580236110325
0.030996815604013697176
0.030997956608217403646
0.030991926736359389633
0.030960532161840539911
0.030845473793871105994
0.03061047243463940401
0.030403247325252347188
0.030240290566647291121
0.030121665815561294438
0.030039705296234894133
0.029985765891991617016
0.02995024934759366389
0.02992644178616409717
0.029910312252925206483
0.029899595266675720734
0.029895280304636725338
0.029894335239413920291
0.029894998869980354134
0.029899182802566835748
0.029916549837507987186
0.029960153450908914158
0.030002024235579634326
0.030034105066359423342
0.030057473133715154751
0.030074192751781744087
0.030086602388691728593
0.030097028670710155446
0.030105972137779084957
0.030115716479745931189
0.030127882908628843966
0.030144606529282400031
0.030167981729271972635
0.030199633225221057115
0.0302402697604676092
0.030287871616744194841
0.030337601322079878891
0.030386705254033509471
0.030430583796105834665
0.030466389773059533025
0.030491845615985738172
0.030507070077633126337
0.030514514593899921824
0.030517516636125695262
0.030518060822577408597
0.030518281904549544176
0.030519366204793698522
0.030523067211534669202
0.030535340511951145764
0.030573247651051259355
0.030632844219023094151
0.030691579977315947003
0.030748489664780765535
0.030801242258503218341
0.030848462543366109156
0.030890310413166213732
0.030926217680193900106
0.030955972055161682516
0.030981087688547421372
0.031002480189602638072