/*--------------------------------*- C++ -*----------------------------------*\
  =========                 |
  \\      /  F ield         | OpenFOAM: The Open Source CFD Toolbox
   \\    /   O peration     | Website:  https://openfoam.org
    \\  /    A nd           | Version:  12
     \\/     M anipulation  |
\*---------------------------------------------------------------------------*/
FoamFile
{
    format      ascii;
    class       volScalarField;
    location    "0.01";
    object      nut;
}
// * * * * * * * * * * * * * * * * * * * * * * * * * * * * * * * * * * * * * //

dimensions      [0 2 -1 0 0 0 0];

internalField   nonuniform List<scalar> 
75962
(
4.5722516873402908428e-07
6.005998593271331598e-07
6.9769247970581862062e-07
7.7552656743098015503e-07
8.8596211748556193166e-07
1.0261590797340780524e-06
1.1415529411531338979e-06
1.2005376864787990309e-06
1.2309530614155531273e-06
1.2758890779263794059e-06
1.3721318757874963423e-06
1.5004747952777264516e-06
1.5911818949149237759e-06
1.6346218623258585379e-06
1.6937198850275126971e-06
1.7928931734814769577e-06
1.8829459427127642554e-06
1.9362509855346077729e-06
1.9805564372333774696e-06
2.05981656917496781e-06
2.180265660944908935e-06
2.3035002745330615388e-06
2.3901853295238861066e-06
2.4332451667925695706e-06
2.4558750600919401512e-06
2.4912797769526707533e-06
2.5793558411813726613e-06
2.7101589810066069357e-06
2.7986848561360234367e-06
2.8594194424510311794e-06
2.9283058309777878967e-06
3.007104412882272791e-06
3.0667875352792885799e-06
3.1010007209567458482e-06
3.1421333732864671707e-06
3.2207126359552025703e-06
3.3207440381547246551e-06
3.4072662586159485634e-06
3.4683779894150010364e-06
3.5191557855231467431e-06
3.586079310982758515e-06
3.6784487466815678313e-06
3.7745119250343874032e-06
3.8461643088839587477e-06
3.8938099408065159188e-06
3.9456159445731179444e-06
4.0218184333639993104e-06
4.1145761391064647477e-06
4.2005391210266177852e-06
4.2625065108198342524e-06
4.3013330342176755934e-06
4.3314847002123036546e-06
4.368421380643290627e-06
4.4195180154743397383e-06
4.4811930272286910434e-06
4.5447283407257206496e-06
4.607430098957101328e-06
4.6770662453339638382e-06
4.7627517731113829544e-06
4.8632631280102717148e-06
4.9684948754156688113e-06
5.0690583219101362605e-06
5.1606478134478007947e-06
5.2374966112979361393e-06
5.2908918980656404686e-06
5.3179537057331712217e-06
5.3305093029353531859e-06
5.3500466240601445892e-06
5.4015310399049821954e-06
5.4855486141874447819e-06
5.567380844228500497e-06
5.6376149212231045068e-06
5.6967881080689102452e-06
5.748425848580784708e-06
5.7951079799972847771e-06
5.8386518007815676359e-06
5.882952739423904438e-06
5.9341721775096386025e-06
5.9976260402888547396e-06
6.0736682606020113344e-06
6.1546732974601529084e-06
6.2281996709929976939e-06
6.2851059197477930344e-06
6.3234580608767854124e-06
6.3492998716648840039e-06
6.3730134712828650256e-06
6.4046092756383591065e-06
6.4505392698057311424e-06
6.5113870627243240302e-06
6.5819555336151256957e-06
6.6528324778492547496e-06
6.7142676130180210158e-06
6.7584454298656811193e-06
6.7821364751464936126e-06
6.7897424390289692442e-06
6.7917017077246045719e-06
6.7994362387330731565e-06
6.8288208789685968738e-06
6.9285933685852003596e-06
7.0677619341851094102e-06
7.173892782712720109e-06
7.2412630914321456958e-06
7.2770796291860142274e-06
7.296790804525389396e-06
7.315913035425172079e-06
7.3453972913079663864e-06
7.3896686222963315645e-06
7.4471112910280619999e-06
7.5114148129802912784e-06
7.5741360609906100944e-06
7.6275840594630944254e-06
7.6661711285995272255e-06
7.6881761426073950386e-06
7.6967256002435372657e-06
7.6991239638971818569e-06
7.7051729592169948015e-06
7.7258378851022528627e-06
7.7785865051337990325e-06
7.8423194742351816491e-06
7.9035064261012247006e-06
7.9545866371731349681e-06
7.9928148827501098618e-06
8.0187411647479358266e-06
8.0388202222700560134e-06
8.0602211887920517436e-06
8.0907469284429129697e-06
8.135445589611250481e-06
8.1972917836146035129e-06
8.2775872977687655512e-06
8.3768254269388281376e-06
8.4930838323584540247e-06
8.6196869554558630072e-06
8.7418708371303084875e-06
8.8399320992722790888e-06
8.8987088903460873762e-06
8.9166409858330156267e-06
8.911632400543712299e-06
8.8932302153081013057e-06
8.8494626263273624479e-06
8.8242836137657975167e-06
8.8173325684264978514e-06
8.8245561431732165566e-06
8.8851320162749858068e-06
9.0003912070336528501e-06
9.0855626327535720348e-06
9.142572252052132408e-06
9.1803019557474714314e-06
9.2062662604302294831e-06
9.2278064064134754558e-06
9.2508034844762213495e-06
9.2779978649893986699e-06
9.3100029974962744651e-06
9.3442240536723020634e-06
9.3742397106110209986e-06
9.3944742712960489827e-06
9.4009781285972451908e-06
9.3971409497939675895e-06
9.3881183890595528281e-06
9.3647714169049947445e-06
9.3303883124274539229e-06
9.3116362472368378346e-06
9.3045405831379130173e-06
9.3056407124435070675e-06
9.3372259833404818992e-06
9.4136429287453168239e-06
9.4764131659110015357e-06
9.5286856125583639453e-06
9.579041757718020366e-06
9.6331001311331475307e-06
9.6921541307258720607e-06
9.7541361118402521765e-06
9.8149682948291881002e-06
9.8726816689865125212e-06
9.9249477541044279946e-06
9.9700977262641430531e-06
1.0003855065156050573e-05
1.0022593546519612006e-05
1.0026307098160151227e-05
1.0020821065368801871e-05
1.0009601693201995287e-05
9.9778140231132044088e-06
9.9252989734957650526e-06
9.8913533470004228073e-06
9.8748892355361668943e-06
9.8673760958757939123e-06
9.8666069053930474957e-06
9.8898778704516332466e-06
9.9451003319480487319e-06
1.0827758652831531662e-05
1.0751414737116090609e-05
1.0705809986874259622e-05
1.0686339671342177685e-05
1.0680376816518825491e-05
1.0692584948606176533e-05
1.0772283485934082832e-05
1.0963739053577542483e-05
1.1118807677894631923e-05
1.122139645088763153e-05
1.1280790096508838232e-05
1.1310240686129264146e-05
1.1322761802949355762e-05
1.1328017321634150112e-05
1.1332274601618046473e-05
1.1338282593455044096e-05
1.1345234808383056546e-05
1.1351286065532676802e-05
1.1353579211762143407e-05
1.1350805412445455012e-05
1.1343469765539832114e-05
1.1332539363993395247e-05
1.1305848494988746824e-05
1.1221520350276034027e-05
1.1062908394861542782e-05
1.0936557808474576338e-05
1.0856240107645465613e-05
1.0817946571685376565e-05
1.0806986271139139454e-05
1.080964238735855703e-05
1.0857763312455394076e-05
1.1037784984470164448e-05
1.1267423194416241274e-05
1.1448288450162169083e-05
1.1592908609036528926e-05
1.1717494930541457417e-05
1.1834817119066258004e-05
1.1947349716950366179e-05
1.2047900430541849898e-05
1.2123304070024182134e-05
1.2164035096056986858e-05
1.2171750545659704561e-05
1.2161432848512731785e-05
1.2124645671015835387e-05
1.1987751590463728267e-05
1.1779190153159450546e-05
1.1647527308231944127e-05
1.1590537011260637049e-05
1.1577348473990021495e-05
1.1587546239613983834e-05
1.1677219840484404331e-05
1.1835201299759345072e-05
1.1932245865249643176e-05
1.1975869454305115163e-05
1.1986490669180038823e-05
1.198226567155385464e-05
1.1974254816477792926e-05
1.1965843882007197666e-05
1.1957049874515627397e-05
1.194597175798063587e-05
1.1924448892410603065e-05
1.1864870988485414998e-05
1.1705564327548701251e-05
1.1528973144044924145e-05
1.139062188743442301e-05
1.1293234983420422356e-05
1.123337753733154567e-05
1.1201978472873043113e-05
1.1187920905686659948e-05
1.118052525397738873e-05
1.1178081568039734123e-05
1.1190841551654242452e-05
1.1211471799602309055e-05
1.1223315338550591028e-05
1.1227220805393682947e-05
1.1224585372416962927e-05
1.1217917500334611205e-05
1.1209777360135777529e-05
1.1199269446596269681e-05
1.1181525501588175948e-05
1.1141967846706359244e-05
1.108751956362466823e-05
1.1038421917511916055e-05
1.0996527364971964624e-05
1.0962000634321467432e-05
1.0935269987926248117e-05
1.091526523405421033e-05
1.0901014249039634178e-05
1.0890944921962201466e-05
1.088315849423772725e-05
1.0876320409883628344e-05
1.0871875007152005687e-05
1.0874956197966857921e-05
1.0887109982996850542e-05
1.0896093269055754881e-05
1.0900356387845372912e-05
1.0900329592757068985e-05
1.0896816459455816483e-05
1.089088641148348231e-05
1.0883858340301408375e-05
1.0876227743643717612e-05
1.0867834390165153607e-05
1.0856934603696477529e-05
1.0845325530670691085e-05
1.0835099786160475152e-05
1.082601158355667383e-05
1.0817702347430926249e-05
1.0810198142501556686e-05
1.0803248110586669836e-05
1.0798701731919883791e-05
1.0802469904694861366e-05
1.0815513875916324133e-05
1.0826808691198300277e-05
1.0835799701475525307e-05
1.0842547043762851877e-05
1.0846327702086235294e-05
1.0846899229170691459e-05
1.0844509699375132073e-05
1.0839695885353975023e-05
1.0833414165541092205e-05
1.0826190375844289536e-05
1.0818475454692999958e-05
1.0809817724338015017e-05
1.0798370057945750336e-05
1.0785674834226462626e-05
1.0774386848768825826e-05
1.0764564893782462617e-05
1.0756013990216508553e-05
1.0748247391836984095e-05
1.0741105745674780689e-05
1.0735571008988217288e-05
1.073639090632160493e-05
1.0746678407431754798e-05
1.0755810997131851244e-05
1.0763055420802548456e-05
1.0768369425576793485e-05
1.0771825553480790072e-05
1.077347988182240846e-05
1.0773666106737547532e-05
1.077265718281623748e-05
1.0769998289699135328e-05
1.0765874425766305199e-05
1.0760259230410001047e-05
1.0753467015198611364e-05
1.0746000709535661133e-05
1.0738248350006579968e-05
1.0730256715990922029e-05
1.072201550889206115e-05
1.0712893893421268591e-05
1.0703330126028731242e-05
1.0693884662074320217e-05
1.0684563675054486027e-05
1.067554529893662055e-05
1.0666656744527769799e-05
1.0658103166573866004e-05
1.0649937599546605612e-05
1.0642028828035731973e-05
1.0634463845523819178e-05
1.0627157725588581532e-05
1.0620338711902860163e-05
1.0615160149949475434e-05
1.061351574963111108e-05
1.0613523749976251816e-05
1.0614769342816660422e-05
1.0617215914659435997e-05
1.062053892762747488e-05
1.0624024132255327206e-05
1.0627052745106610395e-05
1.0629044550078677752e-05
1.0629603265520263871e-05
1.0628505138638136594e-05
1.062560322861208869e-05
1.0621108028676101432e-05
1.0615451516183146456e-05
1.0609190350341257651e-05
1.0602552009503704035e-05
1.059553697743686001e-05
1.058809809963868856e-05
1.0579797899078341247e-05
1.0568701494284709632e-05
1.0556233360721881852e-05
1.0542222145556940909e-05
1.0529323880409730531e-05
1.0514967278267824415e-05
1.0502024057425905863e-05
1.0487706976984343212e-05
1.0474891299355882756e-05
1.0460844141290852268e-05
1.0448390601369915263e-05
1.0434735186991663577e-05
1.0422788546965970911e-05
1.0409694896666165745e-05
1.0398269074504000147e-05
1.0385621263785441669e-05
1.0374613027513415135e-05
1.0362266708281331638e-05
1.0351482949408666076e-05
1.0339222183252260538e-05
1.0328610336983727019e-05
1.0316431335066604614e-05
1.0305970846770010126e-05
1.0294118601521182199e-05
1.0284040175554675996e-05
1.0272517178645089876e-05
1.0262730999970949122e-05
1.0251354504492414069e-05
1.0241563216922612735e-05
1.0230065176470781325e-05
1.0220284151338679353e-05
1.020875737138605987e-05
1.0199105049865158921e-05
1.0187737983863791625e-05
1.0178237295990496286e-05
1.0167031783001899062e-05
1.0157615968350217062e-05
1.0146406251717872998e-05
1.0136980443737044014e-05
1.0125667238524025665e-05
1.0116103456092597908e-05
1.0104749324624217319e-05
1.0095318507851956793e-05
1.0084083335407680287e-05
1.0074882952888314665e-05
1.0063859734252675172e-05
1.0054719615041689433e-05
1.0043676478647558896e-05
1.0034482559279393147e-05
1.0023244713721751596e-05
1.0013933665902753737e-05
1.0002500584610042394e-05
9.9929943476729446038e-06
9.9813580020823313533e-06
9.9717048547026720576e-06
9.9599525773903387857e-06
9.9502542134182158225e-06
9.9385031824504848491e-06
9.9288266088233995436e-06
9.9170697270361601254e-06
9.9073798290445342339e-06
9.8954820778731762508e-06
9.885710449128218936e-06
9.8737157345437525003e-06
9.8639447124710020955e-06
9.8519671265203012558e-06
9.8421053228177753726e-06
9.8301925534847085797e-06
9.8203729606411651763e-06
9.8083764395917682983e-06
9.7985915790884994114e-06
9.7867094688266227095e-06
9.7769904400542827374e-06
9.7652811725406528853e-06
9.7557568720835793723e-06
9.7442717845227609511e-06
5.0564164426434802572e-07
6.4511917100371429849e-07
7.4454216956137934613e-07
7.8934114488937323255e-07
8.5235354115022628237e-07
9.9110670948438808478e-07
1.1373734517322492341e-06
1.219654704319094844e-06
1.2591654828335190536e-06
1.3198997779360194679e-06
1.4444046034763270306e-06
1.5559769463804747325e-06
1.6168289934325252575e-06
1.6576504611944035923e-06
1.7365497149606344025e-06
1.8767618966547228258e-06
1.9948747990004750925e-06
2.0556874338001269217e-06
2.0932874305080896102e-06
2.1658145771925745511e-06
2.3048761790600574279e-06
2.4318065531980618251e-06
2.5028290037312184057e-06
2.5366195953861487936e-06
2.5875830151063038178e-06
2.6878854023239014945e-06
2.7966168712641945953e-06
2.8727849886548005286e-06
2.9217879217306432505e-06
2.9776598819207370309e-06
3.0583715597868818287e-06
3.1429783678328978758e-06
3.2029854840028883223e-06
3.2368982990090197932e-06
3.2708992510337972795e-06
3.3333310032040975018e-06
3.4353190143646583805e-06
3.565720026700406486e-06
3.6952684907987544546e-06
3.7924027400446052693e-06
3.8443726404843857973e-06
3.8698570255431533787e-06
3.9084008659208812955e-06
3.9944799154379648717e-06
4.102742256065167844e-06
4.1984447272792350464e-06
4.2710782411833324651e-06
4.3269626971075739565e-06
4.3790633010205251918e-06
4.4396774301499888912e-06
4.5157096661070869219e-06
4.6020366085316257948e-06
4.6834891308981906529e-06
4.7449492368509779726e-06
4.7804901168879339955e-06
4.7986656654387704448e-06
4.8206299657648167729e-06
4.8715131186002992499e-06
4.998550836017026895e-06
5.1438782198659157191e-06
5.2488102781507962736e-06
5.3072477837090732949e-06
5.3448204564765074224e-06
5.3934195669795681241e-06
5.4639209488303519809e-06
5.5444043217944725618e-06
5.6183802838694429132e-06
5.6804603253812529636e-06
5.7359737666490903803e-06
5.7913433838197333591e-06
5.8464060620036327267e-06
5.8964091509274548514e-06
5.9371536176815670473e-06
5.9695381727551046302e-06
6.004722920275281899e-06
6.0589827182778032176e-06
6.145325027294770534e-06
6.2648449989291575554e-06
6.4033160781658594749e-06
6.5365984347794721743e-06
6.6418784712484434785e-06
6.7088272116904679754e-06
6.7417916185218979341e-06
6.7531557165041657294e-06
6.7559157830084171293e-06
6.7598035931114312783e-06
6.7737577609283340633e-06
6.8165044492915108598e-06
6.8829372465141392572e-06
6.9496974376859345341e-06
7.0090844640104997348e-06
7.05571609552500171e-06
7.0869194621689292284e-06
7.1025391127092585644e-06
7.1077162442655810354e-06
7.1120897557385511666e-06
7.1264434872104723978e-06
7.175018627165047584e-06
7.3210137219785093878e-06
7.4894542106616163283e-06
7.6108575837678025706e-06
7.6819770946974100999e-06
7.7152420892496866245e-06
7.7311643241942351964e-06
7.7480839331615508218e-06
7.7769787283376512141e-06
7.8204428706726191118e-06
7.8752635120926429573e-06
7.9347827190900789107e-06
7.9909679556076209175e-06
8.0369173473398368272e-06
8.0680987728613038463e-06
8.0841373975069113675e-06
8.0888181062479966267e-06
8.0886930013896407387e-06
8.0913684538758006863e-06
8.1048805874815705143e-06
8.1463328971388384903e-06
8.2002210136237412512e-06
8.2510132245837928682e-06
8.2951909957190753358e-06
8.3343903670406453872e-06
8.3712644330194129887e-06
8.4114654565412971533e-06
8.4585457318353129437e-06
8.5157536948940854265e-06
8.5842889056658593826e-06
8.6640341331516718538e-06
8.753955719225141728e-06
8.8519603924584756556e-06
8.9554320667610429153e-06
9.0596153300792983416e-06
9.155195749243338763e-06
9.2301498814399175074e-06
9.2743573702055018742e-06
9.2868453493655529871e-06
9.2812955321049286076e-06
9.2651893261146004484e-06
9.2342874005257464387e-06
9.2195641995123787433e-06
9.2173587831650563649e-06
9.2453538709306022593e-06
9.3750471970432275055e-06
9.5510884128692470412e-06
9.6712681471265134957e-06
9.7446828515977187556e-06
9.7844570790067931311e-06
9.8021378523744065768e-06
9.806762748421905243e-06
9.8048119872302355089e-06
9.8027474795435157786e-06
9.8053866067876280655e-06
9.8125992259079463899e-06
9.819853578049737508e-06
9.8234450456517516918e-06
9.8212282034044014927e-06
9.8147209844398355342e-06
9.804598986970866235e-06
9.7801234372525521545e-06
9.7498051030753154193e-06
9.7333672665727750148e-06
9.7265639295312574669e-06
9.7287453554101088011e-06
9.7658481104845333207e-06
9.8705459830645881942e-06
9.9669569692796975888e-06
1.004548768358613759e-05
1.0112626974122058482e-05
1.0173567806610940928e-05
1.023194440083208064e-05
1.0288828668634764673e-05
1.0343263446540706336e-05
1.0395784267701994072e-05
1.044486249879673005e-05
1.0488518263884800776e-05
1.0521877471051619161e-05
1.0541020885339628675e-05
1.0545330517309599986e-05
1.0539744152371962804e-05
1.0529014673643133143e-05
1.0501393631428831849e-05
1.0445409658013324745e-05
1.0403991974462426353e-05
1.0381617043379391923e-05
1.0371531797327778639e-05
1.0367213741529720224e-05
1.0378812606068861068e-05
1.0440985180151774424e-05
1.0552346696978505744e-05
1.1579689064767498667e-05
1.1481245782588562248e-05
1.1385738548797810768e-05
1.1323866112268171489e-05
1.1293411737929385578e-05
1.128316250911040151e-05
1.1284238694575004361e-05
1.1325441750104319792e-05
1.1457830397624612108e-05
1.1582138134554821916e-05
1.1667779275733957236e-05
1.1723232902731058012e-05
1.1759444723726127612e-05
1.1786142058193293345e-05
1.1809869619347713177e-05
1.1833813421084629153e-05
1.185948939402216175e-05
1.1884603751169149356e-05
1.190658491513083025e-05
1.1921258373477233806e-05
1.1926513735207998712e-05
1.1922456951190653563e-05
1.1913424532318198716e-05
1.1895723496963413565e-05
1.1843010318292911931e-05
1.1699663319689464921e-05
1.1553468465581047517e-05
1.1456774727308788038e-05
1.1407177445567414717e-05
1.1391054244447117901e-05
1.1388776586653233185e-05
1.1418044299512232652e-05
1.1554452998339019901e-05
1.1795159046036916283e-05
1.1989784646546832993e-05
1.2142668936619197798e-05
1.227395980430197065e-05
1.2401910530830831411e-05
1.2534094807314529902e-05
1.2663101681817439732e-05
1.2770119002082015695e-05
1.2838180920247489045e-05
1.2861998807668059401e-05
1.2855962029588944163e-05
1.2829500958900471439e-05
1.2723514519968885485e-05
1.2488956397350460198e-05
1.2320354904545260222e-05
1.2237234827918435853e-05
1.2212352553145508721e-05
1.2211091101451336082e-05
1.2254528824932032385e-05
1.2387110744407241121e-05
1.2491114501958046478e-05
1.2550616316488055361e-05
1.2581283955756682974e-05
1.2597887785295479993e-05
1.2608055645404034264e-05
1.2612700871418614532e-05
1.261051275700611665e-05
1.2602538023970665462e-05
1.2589314653762513887e-05
1.2554555507259563616e-05
1.244428717488898974e-05
1.2249411458783679795e-05
1.2089119534149055706e-05
1.1974500293147649258e-05
1.1902457800671029865e-05
1.1863389715339958216e-05
1.1844946716982435753e-05
1.1836151928242289927e-05
1.1830767723815350736e-05
1.183505606710201365e-05
1.1847028635775615403e-05
1.1852446556737471055e-05
1.1851347818545861874e-05
1.1845418397159225091e-05
1.1837358104110416685e-05
1.1827577016860718151e-05
1.1812309647438581293e-05
1.1779912665535113234e-05
1.1723797498917565716e-05
1.1671360722880184336e-05
1.1625484948377341261e-05
1.1587242180056685041e-05
1.1556226355260235193e-05
1.1532304259169676785e-05
1.1514233359759730327e-05
1.1500966861679011726e-05
1.1491069056889564547e-05
1.1482910196487420797e-05
1.1475530039154310647e-05
1.1470039694386819273e-05
1.1470207122982897132e-05
1.1476598299026976539e-05
1.148062621827992052e-05
1.1481141802874197171e-05
1.1478572449939902485e-05
1.1473410369143553393e-05
1.146663002466060534e-05
1.1459156637658582991e-05
1.1451200378683102469e-05
1.144248095542168326e-05
1.1431809307135592564e-05
1.1420949894305710428e-05
1.1411074148241862349e-05
1.1402034982571034361e-05
1.139362862255888623e-05
1.1385858724424086842e-05
1.1378742026361943727e-05
1.1374447026101358515e-05
1.137945353313772582e-05
1.1392969127288217723e-05
1.1404542586420347654e-05
1.1413746388214860721e-05
1.1420330662118155382e-05
1.1423486702524211984e-05
1.1423106320006908406e-05
1.1419734478287187405e-05
1.1414007421062919334e-05
1.1406964753045740362e-05
1.1399058584605905066e-05
1.1390759743754771193e-05
1.1380789684909151598e-05
1.1367434607926098884e-05
1.1354156048789905954e-05
1.1342332739143883035e-05
1.1332027645455348291e-05
1.1323044078114955779e-05
1.1314838480389353414e-05
1.130725510184051906e-05
1.130126955235322226e-05
1.1301777059089825988e-05
1.1313787899469031193e-05
1.1324822673725400664e-05
1.1332994982160580894e-05
1.1338356189406576601e-05
1.1340943347352415606e-05
1.1340950491227804858e-05
1.1338688625359197971e-05
1.1334445395037188859e-05
1.1328659748254321375e-05
1.1321813854595758325e-05
1.1314402654685615712e-05
1.1306689789851944689e-05
1.1298932517728565696e-05
1.1291171404563923641e-05
1.128338889151912773e-05
1.1275672104548239448e-05
1.1268010410815646789e-05
1.1260347340980390439e-05
1.1252637308069087261e-05
1.1244872293414037202e-05
1.1237088470231355457e-05
1.1229324825892902272e-05
1.1221572414493917133e-05
1.1213910273724123177e-05
1.1206351724306305514e-05
1.1199129566137530148e-05
1.119287165952983247e-05
1.1187811922428713551e-05
1.1183692863334754422e-05
1.1181006326321621424e-05
1.1179829702292326792e-05
1.11802345532188407e-05
1.1181956131831108776e-05
1.1184658601525656682e-05
1.1187510991517731726e-05
1.1189926341984882425e-05
1.1191209785522107637e-05
1.1191077586840894603e-05
1.1189285034385699298e-05
1.1185671070431026046e-05
1.1180590000418571796e-05
1.11744288188650894e-05
1.1167759624232207418e-05
1.1160749140192481133e-05
1.1153307741353333472e-05
1.1145294209680534539e-05
1.1136130869856877213e-05
1.1124006524010363533e-05
1.1111734200993988322e-05
1.109785334037053098e-05
1.1085206509095083658e-05
1.1071020477926306786e-05
1.1058314621570688511e-05
1.1044094565195863175e-05
1.103136390335560644e-05
1.1017206540271422133e-05
1.1004614246567065544e-05
1.0990609403269159731e-05
1.09783124071624264e-05
1.0964684259142271037e-05
1.0952789612437253221e-05
1.0939476363394822338e-05
1.0927904568680302626e-05
1.0914790897198658445e-05
1.0903405882756040039e-05
1.0890401919366058658e-05
1.0879215475764535619e-05
1.0866338398342054983e-05
1.0855296821165892537e-05
1.084265395004207763e-05
1.0831871297325324988e-05
1.0819384626218450689e-05
1.0808700332612852365e-05
1.0796177587173254851e-05
1.0785379854847171099e-05
1.0772741631139586934e-05
1.0762076913935172921e-05
1.0749628465139389209e-05
1.0739246051706011171e-05
1.0727074470004660479e-05
1.0716887535124062413e-05
1.0704825131265994798e-05
1.0694701129697510916e-05
1.0682604872049093924e-05
1.0672467392996576798e-05
1.0660287865898639012e-05
1.065002744624810392e-05
1.0637769955515216676e-05
1.062757594902161078e-05
1.0615373393057957787e-05
1.060531858003425992e-05
1.0593258504853196068e-05
1.0583227265655193396e-05
1.0571142727237173441e-05
1.0561116719826091505e-05
1.0548915675397369546e-05
1.0538874478767472806e-05
1.0526591828976075601e-05
1.0516474732201512793e-05
1.0504067974708970832e-05
1.0493834246748216538e-05
1.0481261238353477991e-05
1.047088300110485807e-05
1.0458226320268553341e-05
1.0447785635681773253e-05
1.04351279203370504e-05
1.0424763193792008323e-05
1.0412041796889840302e-05
1.0401713841360465455e-05
1.0388930800554237047e-05
1.0378562542218978243e-05
1.0365777143911946714e-05
1.0355228121086500933e-05
1.0342406085596471513e-05
1.0331870952646342681e-05
1.0318999007396035449e-05
1.0308582308002462808e-05
1.0295839616624615954e-05
1.0285535387097142576e-05
1.0272937272717352238e-05
1.0262762621120832698e-05
1.0250357341206982122e-05
5.1825303491226154453e-07
6.1603104067892767031e-07
7.5353433790298752796e-07
8.606853520906597234e-07
9.1647506888906781862e-07
9.7848707071294353692e-07
1.0981749038318901593e-06
1.2490947290276002233e-06
1.363595151960668605e-06
1.4305074915193193612e-06
1.4939322571240706521e-06
1.5923562309987137134e-06
1.7174616371688040682e-06
1.8318711174429771947e-06
1.9034731947008905707e-06
1.9416446816345207991e-06
1.9979500654778834864e-06
2.1323810706078556756e-06
2.2769824323217342211e-06
2.3767758922159367091e-06
2.4647081529114140345e-06
2.5573873993726593388e-06
2.6306948493794960862e-06
2.669808178953520299e-06
2.7016036666248405966e-06
2.7671500161606587553e-06
2.8911910548777932685e-06
3.0167771782224118721e-06
3.09787686481174974e-06
3.1361700743753226363e-06
3.1745272599470100937e-06
3.2543621361999624545e-06
3.365783418366719756e-06
3.4631021056538677655e-06
3.5182103620792320366e-06
3.5472614632182261552e-06
3.5923445169827632164e-06
3.698662409391335744e-06
3.8407546201859066404e-06
3.9660725067500629502e-06
4.0605160463683469908e-06
4.1319903247065530038e-06
4.2016223530186514717e-06
4.2765607691207879016e-06
4.3445799685565438978e-06
4.4036207386841249187e-06
4.471267142194901749e-06
4.5555781615126471364e-06
4.6451416295773528267e-06
4.7298061317671369021e-06
4.8073023975116102561e-06
4.8752908227234987966e-06
4.9277657618044223809e-06
4.9606741828043428503e-06
4.9780803178754249591e-06
4.99422824677607673e-06
5.0281117946625250174e-06
5.1153900507089058926e-06
5.2708249487164720036e-06
5.4197436954411582315e-06
5.5336871145148610444e-06
5.6108234961296369378e-06
5.6672488681892360058e-06
5.7203255166732360976e-06
5.7782545862384173503e-06
5.8421349207027755895e-06
5.9118761133399119433e-06
5.9858209785588960641e-06
6.058472227971995551e-06
6.1204930170488793805e-06
6.1652960935789353591e-06
6.1948655111722667141e-06
6.2200716692004194273e-06
6.2575132808226872227e-06
6.3196119975270482775e-06
6.411741461880115836e-06
6.5312350908802563925e-06
6.6649072207453363285e-06
6.7922657480716623895e-06
6.8952698142212456964e-06
6.9643223607111622711e-06
7.0014495164772844792e-06
7.0163015415154962441e-06
7.0239775042965112216e-06
7.0424098286986541422e-06
7.0849909719255388176e-06
7.1489128274218777958e-06
7.2232773085383726602e-06
7.2950157163739831276e-06
7.3535908331765312848e-06
7.3940833786741854103e-06
7.4170397386451301878e-06
7.4267774053132606018e-06
7.4297092386751827114e-06
7.4344901804221037156e-06
7.4503275420050625187e-06
7.5003871337548308959e-06
7.625227818800064303e-06
7.7573587564815165666e-06
7.864914268986604871e-06
7.9402319939835298981e-06
7.9891063580912481781e-06
8.0261980877003588831e-06
8.0674766168689907226e-06
8.1222348413210547063e-06
8.1907806678173536121e-06
8.2660052786024623646e-06
8.3383398343336629402e-06
8.4004203270978405758e-06
8.4485850596777110617e-06
8.4826018401384532591e-06
8.5038361228744939279e-06
8.5140590993814658485e-06
8.5159409367696203982e-06
8.51274767586285645e-06
8.5087931120461380565e-06
8.5072620257529509328e-06
8.5152502371632361988e-06
8.5556671484024794953e-06
8.6650387457843002978e-06
8.7824159339899054489e-06
8.8849619779953950939e-06
8.9659665729388916334e-06
9.0209380759108463406e-06
9.0507643665716019048e-06
9.0650298489106564389e-06
9.0802762582679717599e-06
9.1166972792872088334e-06
9.2072230164629511218e-06
9.3403338541735836777e-06
9.4889595054226534262e-06
9.6331689454172643634e-06
9.7511469844085823107e-06
9.8257509757398508261e-06
9.8538829848488260183e-06
9.8519665329053155979e-06
9.8363867875349588995e-06
9.7882224368940756867e-06
9.7456589622733592681e-06
9.7324270118993872343e-06
9.7374469266071120413e-06
9.8050666741499404656e-06
9.9995585797094880664e-06
1.0155238153534863613e-05
1.0244676410684501846e-05
1.0286936816124440431e-05
1.0300780395057472719e-05
1.0300993525058699645e-05
1.0298390618553691041e-05
1.0299511620685571141e-05
1.0312887706337010751e-05
1.0334136480537847353e-05
1.0350264162416754658e-05
1.0357698151999396937e-05
1.0356109392675289413e-05
1.0348999653128216063e-05
1.0338335075679493268e-05
1.0312226977547297687e-05
1.0263326470432845847e-05
1.0230306987029779298e-05
1.0214888642767101315e-05
1.0209154754168467654e-05
1.0218671428002214357e-05
1.0285212089886039161e-05
1.040914808296111191e-05
1.0505746614880749897e-05
1.058040178252826508e-05
1.0644107255669466077e-05
1.0705286631452212378e-05
1.0768633080075198997e-05
1.0835632547513988563e-05
1.0905059328914183867e-05
1.097299247380920353e-05
1.103529338990500016e-05
1.1085931133057100385e-05
1.112017063414753858e-05
1.1134880419600834474e-05
1.1133785760355925824e-05
1.1124906660231491574e-05
1.110515146585446779e-05
1.1048549664811953844e-05
1.0976798050331442301e-05
1.0931438489003989767e-05
1.0908754928940212118e-05
1.0899333146437181386e-05
1.0896188884195863537e-05
1.0913071620390625053e-05
1.0984936660889900499e-05
1.1079960804162869526e-05
1.2270049718968504654e-05
1.2154224359282352064e-05
1.2010374727206352195e-05
1.1908464447161429961e-05
1.1849996106640710229e-05
1.1825476969758981648e-05
1.1817741551922779724e-05
1.1824866183926431172e-05
1.188446232929148556e-05
1.2015398875278192328e-05
1.212495647856437535e-05
1.2209894188644389917e-05
1.2275479009964543542e-05
1.232835335022963991e-05
1.2372574837963292471e-05
1.2411054043992634423e-05
1.2445492914975871763e-05
1.2474805366139335821e-05
1.2497404541356203018e-05
1.2510557699634493843e-05
1.2513439574921486402e-05
1.250723267484572515e-05
1.2496494056220512484e-05
1.2472647492413581341e-05
1.239904127686140584e-05
1.2247534122535808429e-05
1.2128153651378820968e-05
1.2056692934318405722e-05
1.2027070167625701015e-05
1.2019440055767771622e-05
1.2033521725282189869e-05
1.2128878256393140958e-05
1.2408319178261973065e-05
1.2671151818548002618e-05
1.2847284040965047008e-05
1.2956054420124046037e-05
1.3030735573376256057e-05
1.3102833590812109165e-05
1.3191452527332784937e-05
1.3294655284809599126e-05
1.3392661826223248157e-05
1.3462669895559963777e-05
1.349149011335401694e-05
1.3487674646398916292e-05
1.3464207841160323587e-05
1.3369754181032143212e-05
1.3135602985251597789e-05
1.2957517799183726432e-05
1.287102085958555097e-05
1.2846106433113162399e-05
1.2846321900428181475e-05
1.2899565648979375099e-05
1.3057820810312204107e-05
1.3178890836058779367e-05
1.3243468939156706607e-05
1.3270581824354098495e-05
1.3279907097261896997e-05