/*--------------------------------*- C++ -*----------------------------------*\
  =========                 |
  \\      /  F ield         | OpenFOAM: The Open Source CFD Toolbox
   \\    /   O peration     | Website:  https://openfoam.org
    \\  /    A nd           | Version:  12
     \\/     M anipulation  |
\*---------------------------------------------------------------------------*/
FoamFile
{
    format      ascii;
    class       volScalarField;
    location    "0.01";
    object      p_0;
}
// * * * * * * * * * * * * * * * * * * * * * * * * * * * * * * * * * * * * * //

dimensions      [1 -1 -2 0 0 0 0];

internalField   nonuniform List<scalar> 
75962
(
100847.84085597057128
100961.63243241207965
101105.91447100519144
101209.3403424139251
101234.56158060782764
101161.81589088001056
101062.78721970340121
101091.46577746489493
101189.23212395238806
101243.3199960795464
101246.94176506368967
101174.85557268185948
101081.92431930698513
101080.93890756186738
101169.61404949276766
101282.82697869418189
101353.05227617663331
101341.62865821180458
101299.87312228468363
101324.45313393149991
101397.28977870744711
101418.08189200905326
101362.5908292648237
101302.12339359086764
101279.65580559911905
101280.15443784414674
101291.91059531825886
101306.05943695201131
101311.50067422367283
101320.38805668218993
101349.79344111791579
101384.22395949783095
101393.86765626259148
101375.88095394732954
101360.5048487076856
101373.07125414564507
101401.81242470828875
101416.29040924581932
101416.72086030874925
101410.95031199976802
101407.09811351170356
101398.00734927690064
101392.1579129944439
101388.12068254788755
101380.27400511593441
101374.80194402470079
101373.62158543198893
101366.9795679620147
101356.29625432116154
101353.33903736021603
101359.56383772115805
101372.04960042083985
101395.50310897942109
101430.9278376098664
101457.52713431995653
101458.05029341764748
101438.50096625405422
101416.00427833403228
101395.02421222672274
101379.25601234489295
101366.29660641709052
101362.95276006378117
101359.37825395859545
101348.3794713064708
101327.6648677962221
101292.92789752472891
101245.70158120569249
101205.66437651577871
101197.47944676406041
101223.27215599919145
101249.28938323886541
101240.8094832268398
101201.14720577953267
101161.3835852752236
101138.15458254324039
101121.90745777978736
101108.05839655605087
101108.83641568788153
101137.06112647995178
101185.3766190627648
101221.84837588474329
101226.34605879703304
101208.08021641647792
101190.46346661413554
101190.11638708673127
101209.48237324821821
101244.3062987451558
101286.26152742617705
101321.55500046510133
101339.44395520885882
101342.80771350348368
101346.54649405449163
101357.32015042952844
101365.78974336090323
101360.46238792024087
101345.58719671465224
101336.95060106273741
101343.97676402241632
101361.82769019935222
101378.51751316158334
101385.69997557446186
101382.26367264738656
101369.00373472968931
101352.20304505962122
101338.10444992908742
101328.47589461326424
101322.28789173264522
101320.46897813056421
101327.008601365902
101344.40314148708421
101365.8721177490952
101379.42493997885322
101379.83297004345513
101372.29332004307071
101364.56205869010591
101359.0674339896359
101351.51314311155875
101339.61090228363173
101326.54464286123402
101317.65682773479784
101315.40661691097193
101317.46614639830659
101320.54865694645559
101322.46732830337714
101321.4455658585357
101316.51076413450937
101309.36835165123921
101305.19613053268404
101311.81018451631826
101332.57099302911956
101362.80667293594161
101390.42676513764309
101402.46967892310931
101392.3992008355126
101364.38006458201562
101332.65945295280835
101313.67757071080268
101313.80750472073851
101324.92188842082396
101329.68436965301225
101314.4116620796849
101279.31262455605611
101236.04889569581428
101197.06365568161709
101169.69601903349394
101155.95016094752646
101154.75912591966335
101164.58653065480758
101182.08866417070385
101200.34303712917608
101211.31177886307705
101209.8067238607764
101197.07849878142588
101180.04485450321226
101166.36101740364393
101160.38169280494913
101161.56142832337355
101166.58141272691137
101171.62227007297042
101174.53836460848106
101174.63491335211438
101170.74618104788533
101161.56178136046219
101146.2402469390945
101125.09896296270017
101101.07951051018608
101077.54246987946681
101057.47873870223702
101042.95208647209802
101033.38238610896224
101028.80782437614107
101028.64499980433902
101032.82829503092216
101041.88837919925572
101055.05419925425667
101071.4172307174158
101090.2616933779791
101110.10523089012713
101128.71924072041293
101143.77171939067193
101153.25600588115049
101155.10626697627595
101148.85691274820419
101135.77779732130875
101119.0602603352454
101102.92999189233524
101091.47595078514132
101087.57893334138498
100966.71686331294768
100959.36178625645698
100955.84479849266063
100960.28534435205802
100973.43026718917827
100990.88776136776141
101005.7317582918331
101012.80962258917862
101011.71063477551797
101006.61290146892134
101003.04253625178535
101003.88358638912905
101008.35199121353799
101013.52047158214555
101016.56029833429784
101016.84651318813849
101015.00281770309084
101011.85514733688615
101007.45379106437031
101002.1672385706479
100996.84099556019646
100993.28350508525909
100992.59837261818757
100994.49411005247384
100997.60832048885641
101001.04444949082972
101005.8744341780839
101013.90837956825271
101026.11244768755569
101040.34685988993442
101050.5884098396491
101049.91940546660044
101034.08296106368653
101003.79412036013673
100965.45657404568919
100928.86351984173234
100902.54513313822099
100890.68118277625763
100891.9593848727236
100900.68207952793455
100909.87364380450163
100914.98328183374542
100915.26960139854054
100912.74072019271262
100909.61384493298829
100906.64854257085244
100902.47668421355775
100894.64776704808173
100881.77382967023004
100864.74182877759449
100847.21902710723225
100833.71918603742961
100827.50194009341067
100828.96872492769035
100835.69082012699801
100843.41643467934045
100848.52503386650642
100849.6681529867783
100847.47143964728457
100843.38877560378751
100838.76606496426393
100833.63638914254261
100827.02540102577768
100817.60624476496014
100805.62034453330853
100792.87414421823632
100782.5958303137013
100778.3124678030581
100782.01355508145934
100793.64972358861996
100810.97228558147617
100830.40300999865576
100847.37322068883805
100858.4446705464361
100861.28159616139601
100855.8002310735028
100843.16292481847631
100824.95696630298335
100803.27630208757182
100780.10730761788727
100756.96479227696545
100734.73789754406607
100713.89909544368857
100694.92395051046333
100678.80319267975574
100666.75884660179145
100660.28801235987339
100660.34919096413068
100667.48619962710654
100681.16486382216681
100699.45231318323931
100719.19809410460584
100737.06587971598492
100750.48816048564913
100758.17490564050968
100760.57469701804803
100759.77431298833108
100758.73151779608452
100760.33626278906013
100766.62037047059857
100778.10982778457401
100793.67382362060016
100811.0440194135881
100827.46376253667404
100840.32449268247001
100847.80501894933695
100849.20729540691536
100845.03682177694282
100836.62589931038383
100825.77021945810702
100814.32982048891427
100803.72725708829239
100794.90309969738883
100788.06239995754731
100783.14726590055216
100779.75520565672196
100777.45482910977444
100775.81508000513713
100774.60284320909705
100773.9112371441006
100774.08154918911168
100775.83534263265028
100780.1321010102256
100787.62476392705867
100798.22523525715224
100810.63508825931058
100822.3104121315846
100830.1148518640548
100831.29375269297452
100824.47458032307622
100810.47028432671505
100792.11806700218585
100773.60909942210128
100759.12053848040523
100751.77970253469539
100752.75360330259718
100761.00546108966228
100773.71729445106757
100787.04827677912544
100797.12392849172466
100801.0587553204532
100797.53653831078555
100787.06277220173797
100771.56750582993845
100753.8645231868868
100737.00854798102228
100723.68651282899373
100715.59629924877663
100713.08330798907264
100715.35458281458705
100720.70999116302119
100727.07323655158689
100732.31984676074353
100734.73834577022353
100733.45603827967716
100728.38658865446632
100720.07155440622591
100709.34410156673403
100697.14109501586063
100684.09823547657288
100670.51029675235623
100656.39522201535874
100641.54537750543386
100625.81889861334639
100609.3974660156091
100593.03468303733098
100578.07801600190578
100566.2130674089276
100559.12916436554224
100558.07431234311662
100563.49499457118509
100574.78968154190807
100590.37953379107057
100608.1534125207836
100625.85840039762843
100641.62331635825103
100654.42726280703209
100664.04256932133285
100670.75810041294608
100675.12605125768459
100677.56521577973035
100678.11527731177921
100676.44691954490554
100672.07919730998401
100664.69021692720708
100654.51485210731335
100642.50122917171393
100630.1971731412923
100619.47827180799504
100612.12574876799772
100609.26525599267916
100611.05995967089257
100616.62856056533928
100624.34309806022793
100632.3266954922874
100639.05074187954597
100643.7603592077503
100646.48534460435621
100647.86203631118406
100648.82551085758314
100650.26344376175257
100652.53510344019742
100655.10726763706771
100656.89492629433516
100656.75435815432866
100653.91146736590599
100648.198417347754
100640.23281891041552
100631.24376773546101
100622.77153596936841
100616.12455155279895
100611.8388920603611
100609.52743806871877
100608.16868692371645
100606.49431211713818
100603.47231476783054
100598.67968364074477
100592.47522699285764
100585.93609568478132
100580.65593177270785
100578.20058430271456
100579.64570315471792
100585.28085455051041
100594.5244522284338
100606.05615417742229
100618.19197208819969
100629.23599128556089
100637.77819866866048
100642.91681916840025
100644.29318070648878
100642.08634940400952
100636.97819376947882
100629.99269917373022
100622.20472017728025
100614.48435945574602
100607.35154300746217
100600.84127382290899
100594.65402117109625
100588.3365311169182
100581.44730380114925
100573.57003358154907
100564.36468998072087
100553.73752009199234
100541.96802201443643
100529.67760683130473
100517.59618783384212
100506.36929287362727
100496.44743846880738
100488.15547967560997
100481.8031368375232
100477.72930830900441
100476.30174955533585
100477.8317004241253
100482.44725050423585
101287.95992145444325
101266.07093763543526
101139.95750584590132
101102.09902970955591
101130.21228038673871
101041.27058349340223
100934.97494919507881
101025.84155263897264
101181.36276640977303
101236.15010353256366
101239.50517208428937
101184.26128722878639
101111.16227763543429
101114.83842259789526
101163.78737085151079
101220.9424696348724
101288.36247689007723
101302.33934793465596
101268.18409995657566
101286.05139748871443
101358.62397975202475
101396.7117348954198
101369.24415561219212
101324.6156575838977
101298.26650814719324
101280.00210388605774
101271.37502049859904
101276.98527967675182
101282.19472243842029
101284.24903777580766
101301.68934329938202
101343.19300403789384
101387.70861251007591
101411.30893844799721
101418.07736354973167
101434.74745651184639
101462.53684136552329
101485.00706676479604
101497.1769623967557
101497.65881111944327
101463.96806711083627
101399.99100608598383
101341.88891923242772
101326.65027041951544
101354.01058738124266
101388.42186868947465
101402.2722245441837
101391.10284730153217
101370.19235312301316
101358.59838362928713
101364.82166450902878
101387.31891145817644
101419.50982501263206
101449.55105708054907
101463.14235120874946
101459.19474530919979
101447.40178218034271
101433.05011495339568
101411.66737354309589
101384.22488161214278
101366.67745721293613
101351.19283061104943
101326.34674797054322
101292.48896777041955
101256.51721830687893
101220.23117396279122
101183.6492035438132
101156.48592674158863
101154.25765578892606
101174.83819664381735
101191.44320044029155
101182.38261172072089
101154.84631569229532
101131.53956863493659
101123.72107524704188
101124.66892893721524
101127.90941768664925
101140.81263916449097
101167.32531370512152
101196.17767945436935
101210.94213042121555
101204.49318578469683
101183.8761757461325
101165.88956900771882
101160.92198659520363
101175.55257225706009
101215.33571229426889
101274.46743413445074
101334.30559887143318
101375.12261872364616
101388.18679101401358
101382.046335483843
101370.99410919606453
101361.20684448901739
101351.08108810955309
101341.78892608886235
101338.03501533746021
101343.51310705061769
101354.35353647073498
101364.9838585886464
101368.87060634589579
101361.41766697975982
101345.18767226292402
101330.26193608509493
101326.63656301955052
101335.63184263503354
101347.43350751959952
101354.05888714340108
101357.33184306674229
101364.75935038874741
101378.01149419011199
101390.56673054461135
101396.25563311288715
101393.81078061898006
101385.2044615689083
101371.75076345902926
101353.43357493654185
101332.65067128450028
101316.13721914954658
101308.93555024520901
101310.09088416033774
101315.19449148123385
101320.72065129135444
101325.08443348950823
101326.13294357807899
101321.65428046327725
101311.68160121901019
101302.37680094401003
101304.62311443558428
101323.65347683348227
101355.62166440111469
101386.99303550203331
101402.71617321259691
101395.31340383170755
101369.69554299130687
101340.64802939242509
101325.43936354474863
101329.0406380117638
101343.36250793472573
101350.01192497267039
101334.983959168414
101299.41129039229418
101256.6038828160963
101220.28084812987072
101197.68348768044962
101189.47796794379246
101193.86531907293829
101208.26798402346321
101227.05566836982325
101241.90887300953909
101244.65647710874327
101231.78283035611094
101207.87512225452519
101182.22308810397226
101163.08974033944833
101154.13498407848238
101155.56149449734949
101163.91014348632598
101174.30496078665601
101181.77416517781967
101182.52673801315541
101174.80340831025387
101159.54858938122925
101139.39365497442486
101117.23304939155059
101095.43138161407842
101075.48786869329342
101057.35057424430852
101041.52764860763273
101029.98711867838574
101024.69125936778437
101028.27641315065557
101042.24902984850632
101064.93907198664965
101091.66222681228828
101116.54693065672473
101134.22600664918718
101142.75792830505816
101144.19119590691116
101142.7722098276281
101142.49997915417771
101143.40650399727747
101142.88826456632523
101138.30694255045091
101129.30959015320695
101118.82028657280898
101110.49336168781156
101106.60099455408636
101106.88048856945534
100972.0952679542097
100969.09454379482486
100962.10975938889896
100955.74397407262586
100954.96481626207242
100962.0585188606201
100974.56703571366961
100986.29458640304802
100992.00771834292391
100990.73220280553505
100985.88566279031511
100982.83396446616098
100985.38336142287881
100993.44643194880337
101004.41714067175053
101014.76926671780529
101021.83209415368037
101024.52078072213044
101022.56800995848607
101016.45121297700098
101007.40302671457175
100997.53958325680287
100989.40056206280133
100984.67185168493597
100983.64306572551141
100984.83772340371797
100987.23786793852923
100991.31407232859056
100998.62827514694072
101009.76775201284909
101022.40190834151872
101031.03471618614276
101029.50959371194767
101013.92310395640379
100985.75988080246316
100951.71332769616856
100921.26715771938325
100901.99088660578127
100896.84369491763937
100903.15865799724997
100913.92879641169566
100921.74090521001199
100922.66448019891686
100917.25382680766052
100909.20534689741908
100902.02774671347288
100897.02168100904964
100892.78137757317745
100886.4980124636204
100876.3634501251945
100862.87857486287248
100848.90458085488353
100838.06401597549848
100832.82701466075378
100833.18601823279459
100837.18510320290807
100842.00040921539767
100845.46110520376533
100847.06606279447442
100847.32734969565354
100846.66939968777297
100844.43320330929419
100839.770620039184
100831.44327815335419
100819.00490289500158
100803.35799267824041
100787.50492514586949
100775.31142238092434
100770.36875292705372
100774.51313448652218
100787.04271413829701
100805.0795606944157
100824.61010125353641
100841.04169970020303
100851.53016356987064
100854.53278667935228
100849.97869894260657
100839.33342096666456
100824.21256792447821
100805.99065575124405
100785.94711767704575
100765.19394449976971
100744.61529089718533
100724.69284198649984
100706.0097583669849
100689.34320989355911
100676.01389374822611
100667.34552277898183
100664.68932672639494
100668.63710589629773
100678.72074490667728
100693.13193679528194
100709.73160483126412
100724.60197747958591
100735.26182337824139
100741.27342042530654
100743.87946990791534
100745.50387408009556
100748.92229641036829
100756.1764259536576
100767.95933814326418
100783.44150503068522
100800.71097582651419
100817.53566577217134
100831.91676652603201
100842.43083089895663
100848.43036969020613
100849.99740607412241
100847.91200623611803
100843.23759192152647
100837.09595419531979
100830.44311281407136
100824.10189413673652
100818.32080234975729
100813.22157105139922
100808.89374421718821
100805.41733523522271
100802.73699445082457
100801.12995900701208
100800.8249395176681
100801.87812442687573
100804.51156636982341
100808.77037127013318
100814.60616332932841
100822.08613986197452
100830.95291587451356
100840.11180186005367
100847.50742581300437
100850.74958122082171
100848.05563683211221
100838.84279941007844
100824.1255603634927
100806.65473906250554
100790.23749237603624
100778.64833570082556
100774.52579097617127
100778.50166531155992
100788.91865370790765
100802.30710809260199
100814.40261900951737
100821.38664681708906
100820.84081725921715
100812.32752510518185
100797.33599946113827
100778.76469743365305
100760.1211680398701
100744.8747601701034
100735.63079328273307
100733.64683321678604
100738.63610283947492
100748.90940013788349
100761.84278453141451
100774.39146952950978
100783.82210803650378
100788.16495746876171
100786.55656497369637
100779.3350967670558
100767.54036404087674
100752.5880734577222
100735.81267540964473
100718.2111655856279
100700.33345652515709
100682.33983720706601
100664.02632427067147
100645.44840334622131
100626.81090005014266
100608.94489619071828
100593.09986428775301
100580.71897593246831
100573.35117716927198
100572.19113953583292
100577.65720361382409
100589.22316896128177
100605.37389098636049
100623.738789879455
100641.72399810692878
100657.14488187848474
100668.574685168016
100675.50367185716459
100678.16718313514139
100677.31126154858794
100673.90119535807753
100668.84132528053306
100662.71707498375326
100655.71798678365303
100647.75992896340904
100638.74353518376302
100628.88083873865253
100618.91286776763445
100609.97996232243895
100603.35640484519536
100600.13850575363904
100600.93221986142453
100605.55312704638345
100613.05394652544055
100622.0189482588321
100631.06833919616474
100639.30067692225566
100646.42258493968984
100652.61675110645592
100658.11319185920001
100662.99204466838273
100667.02483204455348
100669.60616639442742
100669.77443310846866
100666.64499623929441
100659.93262205697829
100650.21885143163672
100638.80896296529681
100627.37781083371374
100617.62955308362143
100610.90169939416228
100607.8657946701569
100608.25315440952545
100610.95072129054461
100614.41254886856768
100617.17073249495297
100618.22977204376366
100617.29123198032903
100614.74670178435917
100611.56711043701216
100608.95765827898867
100608.04079150699545
100609.46445589778887
100613.29952403981588
100619.06989939909545
100625.88861680786067
100632.6639670922159
100638.35918590606889
100642.1699151412613
100643.65870407177135
100642.77902137987257
100639.7852134576533
100635.14640089348541
100629.46196812439302
100623.20511396539223
100616.68027466158674
100610.02380537359568
100603.19666411087383
100596.00537043742952
100588.21289151323435
100579.70204691194522
100570.49140912204166
100560.68138868153619
100550.38194512618065
100539.76799498352921
100529.13173320508213
100518.79801296265214
100509.06097630051954
100500.15176649832574
100492.39347929434734
100486.28896328428527
100482.45979066040309
100481.53610889422998
100483.97512984913192
100990.19467407216143
101009.46213436730613
100831.78711152386677
100819.25647655742068
101036.91849074907077
101178.04569753202668
101136.32299016117759
101147.98133982185391
101198.76395277398115
101169.39654914468701
101144.63222162722377
101158.86853387569136
101180.18193149413855
101194.75452963587304
101169.95871850007097
101148.07696860939905
101183.92789169072057
101212.02158992238401
101208.5449619449937
101237.6109980787005
101306.96395378006855
101359.02443536392821
101375.4413484827237
101361.67059969498951
101321.41112658369821
101273.42461326648481
101250.83901918519405
101264.01332115412515
101282.80349876488617
101280.03924199349422
101274.1168386630743
101301.97383372789773
101368.09281536198978
101435.64689358534815
101475.27172451218939
101498.01624083991919
101519.70152555780078
101540.76153602762497
101552.93542092766438
101542.8477532347024
101490.77388779888861
101404.01539587600564
101341.64731215007487
101345.87276724664844
101394.58157156451489
101437.78409824003757
101450.7911666137079
101437.08703400385275
101407.63211533636786
101375.64387360900582
101357.89828816427325
101366.70171174791176
101396.66866587710683
101424.21549414860783
101433.68830310394696
101432.04899370075145
101432.24859072601248
101428.4708849597373
101409.39110641895968
101378.94144217182475
101346.13903758270317
101314.55840116761101
101274.73101685894653
101226.74790256808046
101184.12988884057268
101153.32774947378493
101132.20141080730536
101119.83669354913582
101116.84797521436121
101120.68564999573573
101122.07600915301009
101115.08816303219646
101108.39947483355354
101113.38056836945179
101129.30336889954924
101146.24980581853015
101159.29421465485939
101167.53249930859602
101176.7171066920273
101185.22359302800032
101187.88147768804629
101177.76043931032473
101159.71406440998544
101142.39635963628825
101138.26193073712057
101160.84266420803033
101213.03268148083589
101286.23221327649662
101360.21207831587526
101409.03514964897477
101417.80488556035561
101394.84582888967998
101362.78330239662318
101338.65997309399245
101329.1672101795557
101329.9104359470075
101335.34420057864918
101343.21739617481944
101351.96863115867018
101357.58541004538711
101355.85213606612524
101343.14947347572888
101326.50907259188534
101317.48549073304457
101327.10392857578699
101352.62983140068536
101376.90973059015232
101384.02488674939377
101375.5902427516412
101366.56481041078223
101369.40757742598362
101383.16902551124804
101397.40841718643787
101402.81607019754301
101395.85222290654201
101376.83689961119671
101350.14101425997796
101323.95916007761844
101306.15848785938579
101300.90718415867013
101304.29530454878113
101310.4320612239826
101317.52162872237386
101325.44894442161603
101332.00449147785548
101332.80046779978147
101325.1196934881882
101314.54911286722927
101311.005140423993
101321.6318295973324
101344.82458332456008
101370.83052714954829
101387.49984794655757
101387.37636876285251
101373.37071142558125
101355.91946554330934
101347.25530688624713
101350.40110763767734
101359.46746185877419
101360.27435932078515
101342.84183755613049
101310.29276637895964
101275.13436411692237
101249.86181399508496
101238.55627637339057
101238.38595438752964
101245.07694192936469
101256.27636518397776
101267.76871844514972
101273.35663908273273
101267.03720176043862
101247.33798286375531
101219.72424492619757
101192.29406371056393
101171.24810085260833
101160.72197709282045
101162.62232773816504
101175.05168016205425
101191.93587516374828
101204.16520618820505
101204.42259483941598
101190.83411012846045
101167.22967632699874
101140.43579242567648
101116.16497682244517
101096.11318437903537
101079.0227650886809
101062.63497816189192
101046.09819760898245
101032.86855675846164
101028.35653174361505
101037.6281471989787
101062.41881828688201
101098.12037271984445
101136.08203885547118
101165.65799914921809
101178.464399868084
101173.66874245856889
101158.25323876320908
101142.51665073398908
101134.28350825021334
101134.80015612079296
101140.14016716725018
101144.83594554201409
101145.97304656564665
101144.44431351880485
101141.76714762015035
101137.8178677312826
101130.93115054315422
100979.98771817235684
100979.48677310235507
100971.77560604763858
100960.59856394928647
100952.13216163884499
100950.69993237672315
100956.83063544704055
100966.41233024615212
100973.92033536103554
100976.54162785845983
100975.46554302077857
100974.31454684707569
100977.14134458592162
100985.73906020645518
100999.07382976890949
101014.0619182257069
101026.69346880848752
101033.7843034981488
101033.37514021639072
101025.56525629978569
101012.43548850806837
100997.08186897136329
100983.06790876953164
100972.8495368395088
100967.33130403127871
100965.77352171837993
100967.34447729167005
100971.85379992751405
100979.71223462714988
100990.74998323761974
101002.26148574279796
101009.61048767100147
101007.79551313776756
100994.19337723174249
100970.65169274607615
100943.24918636213988
100919.94455199908407
100906.80100189610675
100905.23317889393365
100911.88732664559211
100920.17635497605079
100923.7449057023041
100919.79701281442249
100910.16666488071496
100899.37646701846097
100891.30998182897747
100887.16432804656506
100885.17912171801436
100882.12541222438449
100875.82801816923893
100866.31958762199793
100855.773342950808
100847.05637232172012
100841.88563957755105
100840.22118413964927
100841.16398348043731
100843.53389227153093
100846.73185660531453
100850.23718810229911
100853.60475480536115
100855.82852630065463
100855.23247000321862
100850.00379694062576
100839.36716709189932
100824.04470421909355
100806.21971768984804
100789.01222376614169
100776.22794036768028
100770.8449484872981
100773.8100655831804
100784.01045671620523
100798.68543396879977
100813.64678926374472
100826.78862076239602
100834.99128924237448
100837.77443149432656
100835.37308175856015
100828.90744859651022
100819.7706031305861
100808.45649852465431
100795.39242975463276
100780.7552774950309
100764.72453704108193
100747.77630145706644
100730.42098807240836
100713.71669229949475
100699.05729436929687
100688.15638567118731
100682.24542928797018
100682.14698171141208
100687.07087018818129
100695.67951947497204
100705.32376992040372
100713.71420904344996
100719.26394725410501
100722.32166291683097
100724.8397394020576
100729.54968452699541
100738.63174718964729
100752.68736151974008
100770.57495421638305
100789.93367890821537
100808.07838438815088
100822.93207847350277
100833.79691478026507
100840.95591457570845
100845.21009237968246
100847.45812959647446
100848.5217407146265
100848.80708118798793
100848.51893857071991
100847.63062182301655
100846.13903315382777
100843.95753680213238
100841.0064475875115
100837.41222473946982
100833.63238585436193
100830.52635423549509
100828.97198536382348
100829.65543129501748
100832.74640244524926
100837.9927419059677
100844.70695807559241
100851.9671769439301
100859.12027860892704
100865.58007547081797
100870.40100531800999
100872.40435713883198
100870.36516164643399
100863.52231510165439
100852.04017170460429
100837.22964645622415
100821.60576473156107
100808.32361543482693
100800.40241830585001
100799.57057955411437
100805.65977742613177
100816.56561585621967
100828.61745524263824
100837.67042301100446
100840.46255007505533
100835.34277169709094
100822.63085451041115
100804.56192124112567
100784.6555732631823
100766.8818169793085
100754.68078268729732
100750.4192129301955
100754.89534737840586
100767.21999932004837
100784.91830298645073
100804.42900792222645
100821.98583343629434
100834.34791729965946
100839.54350484348834
100836.88397584148333
100827.07597383631219
100811.70998444283032
100792.74364862368384
100771.92776129198319
100750.49341348664893
100729.13524349570798
100708.02179952988809
100687.0657017268968
100666.30364233064756
100646.04790300694003
100627.03255084887496
100610.36444770317758
100597.27474923555565
100589.11640300045838
100586.96050128035131
100591.22656154184369
100601.59622018094524
100616.72299853870936
100634.2801252790523
100651.61530763475457
100666.25827566660882
100676.41130039108975
100681.22285825334257
100680.73522701680486
100675.74480489178677
100667.63309549899714
100657.89288035598292
100647.74012405263784
100637.98778756576939
100628.98268712240679
100620.64706410042709
100612.72857374160958
100605.27339409475098
100598.80352162598865
100594.19346956767549
100592.35278630063112
100593.86182825687865
100598.87428378686309
100606.9844483651832
100617.28853476291988
100628.62815027857141
100639.96242693283421
100650.65549163409742
100660.38586738763843
100668.9451287373231
100675.96734047176142
100680.83852641572594
100682.78126223399886
100681.09170298323443
100675.42140519458917
100666.02356679517834
100653.90074704062135
100640.64927879498282
100628.13260792156507
100618.02856254696962
100611.59425614120846
100609.46792718971847
100611.57492817875755
100617.08032998141425
100624.50545984540076
100632.15552200372622
100638.51775760237069
100642.62683668243699
100644.17493443388958
100643.38249413197627
100640.93221358997107
100637.76141051392187
100634.83016573158966
100632.86604242405156
100632.18145463347901
100632.74574776928057
100634.33718150030472
100636.56427229025576
100638.96086671113153
100641.05911883777298
100642.42040882274159
100642.68565618489811
100641.61165247824101
100639.04112122817605
100634.9219357529073
100629.27422446287528
100622.22720957413549
100614.01968888379633
100605.03869833660428
100595.73752468898601
100586.57438566035125
100577.88084313843865
100569.81597666619928
100562.34220914836624
100555.2072858196625
100548.06401537422789
100540.62044525005331
100532.76343131207977
100524.61199116439093
100516.54685110251012
100509.22783555617207
100503.52064057807729
100500.32630596277886
100500.39790002921654
100504.16064375021961
101220.4353794464696
101147.86450938352209
101115.15891335441847
101142.46563924720977
101207.03737193910638
101286.80041053098103
101259.33050894031476
101236.51709610254329