/*--------------------------------*- C++ -*----------------------------------*\
  =========                 |
  \\      /  F ield         | OpenFOAM: The Open Source CFD Toolbox
   \\    /   O peration     | Website:  https://openfoam.org
    \\  /    A nd           | Version:  12
     \\/     M anipulation  |
\*---------------------------------------------------------------------------*/
FoamFile
{
    format      ascii;
    class       volScalarField;
    location    "0.01";
    object      pMean;
}
// * * * * * * * * * * * * * * * * * * * * * * * * * * * * * * * * * * * * * //

dimensions      [1 -1 -2 0 0 0 0];

internalField   nonuniform List<scalar> 
75962
(
99322.827615801448701
99323.496602496830747
99323.30148172081681
99323.184919849241851
99323.166343621138367
99323.096506336587481
99323.001495007993071
99322.873876150290016
99322.679840192737174
99322.423575594395516
99322.119477325308253
99321.791459191619651
99321.477986818368663
99321.177917982451618
99320.852702635194873
99320.486776478719548
99320.085809384079766
99319.669991018454311
99319.260621595138218
99318.852038951066788
99318.420769607968396
99317.969822965984349
99317.526469213044038
99317.107182792358799
99316.70442152270698
99316.308888557687169
99315.917731349225505
99315.528086070888094
99315.140722723808722
99314.758282007765956
99314.378417941072257
99313.996111167551135
99313.613847093190998
99313.239455561968498
99312.874958169588353
99312.514732462863321
99312.152568022836931
99311.792399229670991
99311.441029760753736
99311.101734175696038
99310.77269107515167
99310.454288264882052
99310.145268838576158
99309.842389493700466
99309.544924638947123
99309.253530574627803
99308.966893494231044
99308.684990031586494
99308.410607469297247
99308.143904946395196
99307.881808198901126
99307.621448108169716
99307.359928027712158
99307.092268973705359
99306.816382982899086
99306.537603158692946
99306.263803266425384
99305.998922967657563
99305.741644075460499
99305.49148201161006
99305.246421672491124
99305.003221419246984
99304.760971977739246
99304.522638893991825
99304.292520742063061
99304.074430242690141
99303.872183632352971
99303.686487930637668
99303.510841843861272
99303.333765310351737
99303.148688922185102
99302.961860539842746
99302.785810258326819
99302.624781027683639
99302.47480580570118
99302.331438157169032
99302.195353808623622
99302.065763749938924
99301.937194974307204
99301.801913953066105
99301.657854621575098
99301.512066301904269
99301.373474118605372
99301.245945004717214
99301.126048134523444
99301.00767510359583
99300.884796791506233
99300.753343690972542
99300.613003691891208
99300.468389303612639
99300.326088201007224
99300.189279568192433
99300.056506571825594
99299.925988989081816
99299.799714159904397
99299.681499348342186
99299.57122949976474
99299.464449868901283
99299.35611794005672
99299.245116223202785
99299.133939359613578
99299.026700392656494
99298.927179484788212
99298.837442842355813
99298.757302749843802
99298.68467454900383
99298.617739622102818
99298.555494533691672
99298.496319096724619
99298.437325604405487
99298.375310709045152
99298.309203640936175
99298.240839393081842
99298.172458090470172
99298.104756748289219
99298.037836264265934
99297.972903036774369
99297.912161455620662
99297.856865345878759
99297.806421484099701
99297.758266220800579
99297.709315774292918
99297.657965189777315
99297.604227145668119
99297.548795135211549
99297.492916040020646
99297.437708925805055
99297.38332964858273
99297.327894127491163
99297.267824915121309
99297.19929444869922
99297.120731061178958
99297.034636672877241
99296.947171271764091
99296.865053023400833
99296.79207465206855
99296.727024916675873
99296.665059784805635
99296.601401352221728
99296.53491919512453
99296.468982178193983
99296.409110069784219
99296.359015065783751
99296.318713735017809
99296.285672438665642
99296.256449897467974
99296.227807693037903
99296.197197498797323
99296.161949788365746
99296.120679713509162
99296.07346799239167
99296.022453622848843
99295.970483846802381
99295.919344644396915
99295.869227827279246
99295.818822464323603
99295.766162393148988
99295.710223135858541
99295.650836277316557
99295.588488804802182
99295.523751371583785
99295.457243663840927
99295.389856374138617
99295.322904287590063
99295.258158737327904
99295.196977103172685
99295.139823421370238
99295.085996699213865
99295.034465266493498
99294.983749895749497
99294.932633577409433
99294.879720141339931
99294.823975419611088
99294.764310548984213
99294.700018791481853
99294.630712400583434
99294.556060096001602
99294.476240323012462
99294.391973801073618
99294.304392318270402
99294.214786077689496
99294.125211780003156
99294.037981645655236
99293.954946061887313
99293.877846750197932
99293.807757614456932
99293.744169466357562
99293.685484464265755
99291.396632588788634
99291.346526120818453
99291.297365909296786
99291.248452607003856
99291.198687123061973
99291.14752300058899
99291.095618335675681
99291.045054754926241
99290.998223763584974
99290.956668539743987
99290.920235003184644
99290.887523482844699
99290.856646790009108
99290.826099298632471
99290.795277284516487
99290.764059195862501
99290.732295697598602
99290.699676421136246
99290.665490328887245
99290.62904908946075
99290.589777671950287
99290.546998854537378
99290.500123073230498
99290.448991545534227
99290.394198747482733
99290.336993310542312
99290.278717743174639
99290.219977822634974
99290.160218154051108
99290.098509005794767
99290.034464361029677
99289.968928897069418
99289.904014026877121
99289.842461031294079
99289.786582265165634
99289.737245567914215
99289.693440538147115
99289.652734718227293
99289.612468107792665
99289.570775510364911
99289.527126814660733
99289.482138733495958
99289.43663733919675
99289.390941186371492
99289.3444977751642
99289.296157494361978
99289.245152973642689
99289.191800250380766
99289.137392293516314
99289.083662925680983
99289.031987347989343
99288.982765678374562
99288.935192683595233
99288.887938909829245
99288.839793192557408
99288.790285148497787
99288.739955030905548
99288.690065751521615
99288.642016154670273
99288.596757549516042
99288.554433064637124
99288.514494661969366
99288.47604826571478
99288.438210186475771
99288.400273661696701
99288.361526787804905
99288.320933157447143
99288.277099596598418
99288.228473228518851
99288.173716036966653
99288.112073097174289
99288.043538783065742
99287.969102536531864
99287.890450001388672
99287.809702274345909
99287.728972080847598
99287.64986773947021
99287.573468527334626
99287.500419953852543
99287.430942698963918
99287.364996002244879
99287.302498316174024
99287.243392605116242
99287.187639534546179
99287.13516016335052
99287.085672355562565
99287.03866200131597
99286.993331488556578
99286.948563681085943
99286.903147967721452
99286.855899987349403
99286.806145213427953
99286.753752643460757
99286.699091337519349
99286.642828317344538
99286.585586575922207
99286.527630226191832
99286.468656480792561
99286.407843293403857
99286.344008898333414
99286.275927785260137
99286.202658735899604
99286.123764032279723
99286.039399314802722
99285.950253939212416
99285.857470305258175
99285.762500607524998
99285.666911867170711
99285.572183798867627
99285.47951490151172
99285.389739829071914
99285.303288920767955
99285.220176409857231
99285.140005858585937
99285.062088957391097
99284.985566755683976
99284.909517116233474
99284.833069636297296
99284.755561015364947
99284.676607573928777
99284.596044127145433
99284.513855039665941
99284.430065993001335
99284.344592203880893
99284.257222043845104
99284.167712916634628
99284.07600967916369
99283.982418075946043
99283.887731933325995
99283.793176866951399
99283.700125159273739
99283.609707499097567
99283.522498747552163
99283.43834163111751
99283.356395313341636
99283.275347670321935
99283.193660405770061
99283.109899261020473
99283.022999678534688
99282.932487487705657
99282.838552093919134
99282.74187925249862
99282.643391698919004
99282.543939330978901
99282.444058281122125
99282.34382682791329
99282.242809419010882
99282.140154793436523
99282.03479470682214
99281.9256980161299
99281.812088160964777
99281.693587079484132
99281.57031762432598
99281.442855477740522
99281.312078450922854
99281.178968856504071
99281.044417370227166
99280.90914155257633
99280.773624846682651
99280.638130290957633
99280.50274805141089
99280.367443667360931
99280.232109521035454
99280.096638554765377
99279.960888343950501
99279.824637101846747
99279.687585240812041
99279.549403510842239
99279.409718958544545
99279.268134749872843
99279.124295310888556
99278.97798405411595
99278.82923820852011
99278.678395250026369
99278.526070507185068
99278.37307879900618
99278.22029146971181
99278.0684747499472
99277.918162954054424
99277.769644409840112
99277.622975520658656
99277.478090737306047
99277.334968655210105
99277.193703435492353
99277.054497722230735
99276.917651559531805
99276.78345682300278
99276.652048056785134
99276.523228023128468
99276.396369176407461
99276.270428235686268
99276.144148045277689
99276.016302017538692
99275.885953842007439
99275.752652125709574
99275.616579086432466
99275.478471669062856
99275.339437182745314
99275.200677988075768
99275.063238623726647
99274.927827115752734
99274.794782415963709
99274.66409550581011
99274.535524891296518
99274.408763723316952
99274.28364422438608
99274.160206079221098
99274.038630183858913
99273.91911721888755
99273.801766231335932
99273.686475021313527
99273.572939310251968
99273.460741925722687
99273.349500787022407
99273.239019354921766
99273.12930965484702
99273.020519742742181
99272.912838211123017
99272.806377500557574
99272.70113121040049
99272.596972939878469
99272.493804118072148
99272.391731248921133
99272.291132158396067
99272.192651407283847
99272.097215069705271
99272.005953053027042
99271.920100949238986
99271.840896066089044
99271.769454229914118
99271.706615936331218
99271.652917913699639
99271.608633284457028
99271.573742154840147
99271.547983248441597
99271.530918110365747
99271.522053104927181
99271.520947331038769
99271.52733387814078
99271.541191982891178
99271.562793734876323
99271.592686251169653
99271.63160103734117
99271.680412313828128
99271.740137668792158
99271.811889202173916
99271.896752473723609
99271.995732094423147
99272.1097617772175
99272.239646938120131
99272.38603934260027
99272.549478472777992
99272.730402097047772
99272.929157651393325
99323.876116377621656
99324.130347731916117
99323.241830076789483
99323.254505783173954
99323.351166124833981
99323.268519560690038
99323.134370571671752
99322.985391189940856
99322.774061359756161
99322.505400966620073
99322.203595889004646
99321.886177012012922
99321.578696119977394
99321.272974417515798
99320.944186921071378
99320.589498760236893
99320.205205607868265
99319.799295997654554
99319.398042643864756
99318.998832768847933
99318.580015369370813
99318.139456159973633
99317.698621543473564
99317.274405665200902
99316.86786413671507
99316.474573054496432
99316.092243029313977
99315.71399993293744
99315.33369363314705
99314.954234883000026
99314.577756854443578
99314.202063198943506
99313.824225153337466
99313.447242998619913
99313.075424404916703
99312.707360686414177
99312.337202543043531
99311.965288081861218
99311.597553199128015
99311.238361377138062
99310.892927549561136
99310.568963226600317
99310.267311071103904
99309.977974179928424
99309.688789289109991
99309.394457634305581
99309.099063569999998
99308.808755481091794
99308.527969955175649
99308.256976603108342
99307.991656670725206
99307.726917276741005
99307.457618929634918
99307.181877284747316
99306.901681778763304
99306.621593395320815
99306.344986973097548
99306.072625035405508
99305.806345225530094
99305.547800620057387
99305.296789506959612
99305.048796690316522
99304.805013171411701
99304.569337430744781
99304.344843074577511
99304.133302574700792
99303.935875062801642
99303.751690280521871
99303.574972923248424
99303.397391072139726
99303.215700603468576
99303.03517951266258
99302.864938536309637
99302.707172499489388
99302.557327737609739
99302.412093059057952
99302.270751956151798
99302.132423069677316
99301.993281668153941
99301.849659526080359
99301.702911149521242
99301.558144618451479
99301.421510234547895
99301.295196875085821
99301.176742934723734
99301.061386173518258
99300.942414890989312
99300.812688444799278
99300.669338360923575
99300.515626427310053
99300.360328531765845
99300.210661591263488
99300.069892406347208
99299.938186082814354
99299.815058291438618
99299.69987028525793
99299.590838363568764
99299.484098501910921
99299.376572988403495
99299.267943073471542
99299.160063339513727
99299.055959863835596
99298.960179601621348
99298.874554073860054
99298.797658884563134
99298.724624600159586
99298.651964636243065
99298.580001558468211
99298.510276458313456
99298.442789194130455
99298.375419005853473
99298.305734355730237
99298.233752882078988
99298.160856399641489
99298.088387116018566
99298.017904502965393
99297.951608453047811
99297.891553960638703
99297.837657648749882
99297.787668684599339
99297.738486150905374
99297.687598685282865
99297.633854691055603
99297.577262951221201
99297.518581069656648
99297.459148450594512
99297.400614019672503
99297.343654059863184
99297.286887436872348
99297.226285256532719
99297.157553870289121
99297.078515712593799
99296.991944685622002
99296.904062509522191
99296.821572716187802
99296.748232934856787
99296.682835087602143
99296.620174250972923
99296.554944435352809
99296.485962214967003
99296.417353917218861
99296.355179556820076
99296.303245090268319
99296.26130344561534
99296.226116902456852
99296.193886756664142
99296.161466507968726
99296.126455509802327
99296.086473880597623
99296.040882727014832
99295.991107011199347
99295.940128003348946
99295.890916318458039
99295.844941024275613
99295.801608308436698
99295.758763070858549
99295.713894188578706
99295.665104685220285
99295.611168389106751
99295.552269355175667
99295.489843837873195
99295.426121994634741
99295.363315315233194
99295.303035345394164
99295.246164226002293
99295.192870523300371
99295.142649594083196
99295.094831157868612
99295.048886259362916
99295.004045883120853
99294.958872560659074
99294.911624814209063
99294.860074699507095
99294.801646785010234
99294.734750321993488
99294.659589046626934
99294.577836048221798
99294.492101185722277
99294.405066554463701
99294.318295052769827
99294.232192736526486
99294.146797463225084
99294.062497489881935
99293.980285525729414
99293.901557490855339
99293.827685727315838
99293.759001502636238
99293.694681879962445
99293.633476771952701
99291.435868323591421
99291.382957509282278
99291.331172117774258
99291.280973160493886
99291.232275805115933
99291.184318912128219
99291.136286982757156
99291.088526212974102
99291.042670604321756
99291.00087097872165
99290.964627103938255
99290.933787198009668
99290.906721018443932
99290.881367659807438
99290.855772313298075
99290.828577707186923
99290.799141781957587
99290.767364065832226
99290.733476845460245
99290.697391716763377
99290.65890602026775
99290.617848236070131
99290.573910710285418
99290.526626287115505
99290.475814690056723
99290.421985791355837
99290.366157337542973
99290.309408893081127
99290.252213839557953
99290.194183201674605
99290.134753329184605
99290.073601648095064
99290.011392960630474
99289.950034825626062
99289.892027106427122
99289.839419981712126
99289.792642410830013
99289.750243427493842
99289.709746716616792
99289.668661112009431
99289.625507997916429
99289.580345665206551
99289.534359885161393
99289.488851535410504
99289.444199178440613
99289.399533005518606
99289.353296670917189
99289.304281068369164
99289.252366513916058
99289.198622605574201
99289.144730231389985
99289.092115445659147
99289.041401322101592
99288.992371010230272
99288.944284786775825
99288.896266406838549
99288.84794563955802
99288.799571618787013
99288.751851826076745
99288.705467381019844
99288.660800243364065
99288.617936608890886
99288.576652565476252
99288.536622971805627
99288.497476156015182
99288.458878206714871
99288.420138162167859
99288.380039982585004
99288.33690925045812
99288.288914115561056
99288.234522397993715
99288.172959152405383
99288.104506236384623
99288.030219035499613
99287.952114133688156
99287.872264391990029
99287.79258511766966
99287.714513991057174
99287.638969450810691
99287.566458244167734
99287.497159973863745
99287.431090208337991
99287.368231828717398
99287.30853397345345
99287.251968961485545
99287.198526320687961
99287.148085936467396
99287.100283633582876
99287.054419762818725
99287.009536830810248
99286.964416761766188
99286.918098990077851
99286.869622438214719
99286.818688935658429
99286.765687350198277
99286.711302917974535
99286.656122028522077
99286.600278736033943
99286.543321027915226
99286.484297067887383
99286.422031577894813
99286.355483558290871
99286.284002725486062
99286.207510855500004
99286.126452056414564
99286.04161346355977
99285.954008445623913
99285.864772961300332
99285.775076035264647
99285.686034337588353
99285.598613733396633
99285.513571985866292
99285.431459639483364
99285.352500718756346
99285.27657971206645
99285.203201212440035
99285.131528487050673
99285.060539310783497
99284.989194200956263
99284.916532256975188
99284.841879936589976
99284.76488310068089
99284.685468882322311
99284.603773356284364
99284.52002271800302
99284.43439905474952
99284.347051819742774
99284.258247876729001
99284.168518144811969
99284.078722109785303
99283.989922559456318
99283.903219647734659
99283.819432857548236
99283.738827314125956
99283.660973948892206
99283.584769728535321
99283.508667126588989
99283.431063100986648
99283.350621557721752
99283.266581828298513
99283.178850923955906
99283.087964878010098
99282.99490991231869
99282.90079675213201
99282.806579071067972
99282.71276510527241
99282.619233677411103
99282.525278790693847
99282.429731628493755
99282.331186190102017
99282.228286250407109
99282.120031003069016
99282.005982016897178
99281.886361777898856
99281.761992275889497
99281.634065172052942
99281.503875174021232
99281.372588126119808
99281.241082690059557
99281.109931251063244
99280.979415181209333
99280.849620278793736
99280.720462397002848
99280.591777630528668
99280.463331407503574
99280.334871557628503
99280.20613206885173
99280.07677561075252
99279.946390734156012
99279.814510434254771
99279.680656532073044
99279.544432506838348
99279.405626755164121
99279.26428037750884
99279.120763577680918
99278.975806930611725
99278.830435559502803
99278.685790321615059
99278.542932723939884
99278.402733348571928
99278.265799454820808
99278.132405490163364
99278.002498577494407
99277.875803492162959
99277.751993143334403
99277.630846046915394
99277.512288058103877
99277.396319585488527
99277.282913573770202
99277.17184922186425
99277.062563852508902
99276.954129656456644
99276.845420315934462
99276.735316786172916
99276.62292683472333
99276.507788063405314
99276.389964372952818
99276.27006531546067
99276.149076405490632
99276.028168369142804
99275.908457040088251
99275.790811067214236
99275.675753775009071
99275.563526800862746
99275.454205412926967
99275.347851380065549
99275.244575363176409
99275.14453037493513
99275.047820758991293
99274.954427176955505
99274.86414149387565
99274.776555483273114
99274.691094199719373
99274.607106396302697
99274.52405002299929
99274.441688262828393
99274.360168642131612
99274.279941824890557
99274.201535533808055
99274.125373843169655
99274.051717385140364
99273.980635775951669
99273.912082740149344
99273.846048828985658
99273.782742305702413
99273.722667729991372
99273.666556909767678
99273.615335699651041
99273.570003146844101
99273.531509768377873
99273.500680862081936
99273.47815430542687
99273.464385213621426
99273.459681653475855
99273.464199021327659
99273.477929392669466
99273.500776641565608
99273.532616168944514
99273.573336443951121
99273.622868909194949
99273.681215711185359
99273.748496571657597
99273.824975036783144
99273.91107941926748
99274.007390525948722
99274.11463300428295
99274.233628751215292
99274.365307624757406
99274.510682530279155
99274.670772798010148
99274.846539567632135
99275.038828545948491
99275.248280258267187
99275.475339938115212
99275.720273861836176
99321.203375251410762
99322.566503642956377
99322.593436543844291
99322.766935049279709
99322.972841543276445
99322.955498973868089
99322.847916360551608
99322.743314333332819
99322.592884679339477
99322.39383101722342
99322.165452684406773
99321.901669203769416
99321.602351106485003
99321.278482373629231
99320.947435415146174
99320.620195002615219
99320.279600105001009
99319.909775293854182
99319.525289265657193
99319.136656858856441
99318.729725729164784
99318.300298154295888
99317.861735651677009
99317.426340935155167
99317.004309925498092
99316.602689069375629
99316.220715619216207
99315.847791760737891
99315.476408936272492
99315.110351619718131
99314.753425579852774
99314.400052157987375
99314.038870731805218
99313.663412068985053
99313.281234203372151
99312.90010116341
99312.521658175930497
99312.145141674947808
99311.77047598057834
99311.399713394770515
99311.04045363421028
99310.707896762425662
99310.406280026538298
99310.120604738825932
99309.831511124240933
99309.532635835377732
99309.229238853164134
99308.928747649653815
99308.637553119435324
99308.359969601035118
99308.095276186839328
99307.836526859508012
99307.573177849219064
99307.300255679961992
99307.021025334877777
99306.740464484144468
99306.460126075864537
99306.179516759759281
99305.903030757574015
99305.635451515641762
99305.37747953030339
99305.127592487100628
99304.885573541934718
99304.655189521086868
99304.43947901786305
99304.237062573651201
99304.045700779315666
99303.863102367016836
99303.685439088876592
99303.509388596809004
99303.334307536351844
99303.162722608307377
99302.997967496121419
99302.839615071105072
99302.684246183824143
99302.52915232743544
99302.374771120987134
99302.2226901302638
99302.073319549614098
99301.925799558215658
99301.779767298896331
99301.638105265723425
99301.504744356163428
99301.381156769828522
99301.265811497432878
99301.152883426941116
99301.03456650589942
99300.903245319845155
99300.755342538730474
99300.594355613604421
99300.430658724129898
99300.274994064282509
99300.13343103355146
99300.005573439557338
99299.886819454055512
99299.773183871962829
99299.661835291815805
99299.551214864128269
99299.440317879474605
99299.329847259970848
99299.222524355878704
99299.121688974948484
99299.029888677032432
99298.946983253539656
99298.86856842211273
99298.788958888224442
99298.705616258710506
99298.622032344515901
99298.543834497802891
99298.473213710094569
99298.407117175374879
99298.339718473042012
99298.267208072764333
99298.189717868823209
99298.11007948104816
99298.032560804727837
99297.961227518608212
99297.898289665798075
99297.843146102284663
99297.792375693083159
99297.741658261555131
99297.688577644526958
99297.632318018833757
99297.572459025366697
99297.509189227916067
99297.443600074169808
99297.378457426602836
99297.315928155061556
99297.2555974022398
99297.194128345552599
99297.127183398304624
99297.051932992559159
99296.969306662183953
99296.883836166380206
99296.800984774628887
99296.723827980706119
99296.652133281982969
99296.583216511411592
99296.513770639256109
99296.443308286339743
99296.375543023765204
99296.315097038372187
99296.264118447623332
99296.221188867828459
99296.182405384490266
99296.144413352798438
99296.105162450665375
99296.063858599445666
99296.019579202707973
99295.972475880669663
99295.923869523307076
99295.8760768869397
99295.831284532381687
99295.79016362252878
99295.751934965432156
99295.714649260116857
99295.675457234290661
99295.631417155847885
99295.58075185897178
99295.523920532898046
99295.463415059435647
99295.402861080990988
99295.34555840549001
99295.293024645856349
99295.244938180228928
99295.200190915551502
99295.157238316431176
99295.115393315703841
99295.074862344932626
99295.035568881910876
99294.99615223389992
99294.953961762541439
99294.905288259527879
99294.846645085432101
99294.776229915893055
99294.694863893819274
99294.606065719941398
99294.51508641851251
99294.426337419063202
99294.34161417359428
99294.260246866251691
99294.180274889149587
99294.100114438770106
99294.019625407265266
99293.93987767532235
99293.862109999434324
99293.787228898887406
99293.715564831800293
99293.647525843087351
99291.441600113976165
99291.385441046251799
99291.330746470775921
99291.279003746807575
99291.23069871183543
99291.185368173086317
99291.141892040861421
99291.099734160030494
99291.059440343495226
99291.02241870459693
99290.990063802266377
99290.962696232454618
99290.939273419600795
99290.917727025065687
99290.895764166562003
99290.871421301853843
99290.843519537185784
99290.811689472218859
99290.776133139181184
99290.737413743350771
99290.696226387677598
99290.652998597899568
99290.607729111376102
99290.560216098674573
99290.510400344341178
99290.458469637931557
99290.404891310885432
99290.350266838780954
99290.294895798011567
99290.238734042432043
99290.18138360028388
99290.12257195917482
99290.062892964037019
99290.00393754185643
99289.94786272069905
99289.896300896842149
99289.849520739429863
99289.806152810546337
99289.764098571322393
99289.7213955266634
99289.677142382148304
99289.631883097012178
99289.586937547530397
99289.543373639637139
99289.501093242201023
99289.458829174720449
99289.414739423184074
99289.367412475854508
99289.316590163871297
99289.263197366788518
99289.208845966815716
99289.155053978902288
99289.102840451727388
99289.052441306834226
99289.003566907427739
99288.955660458639613
99288.908316380082397
99288.86134834974655
99288.814779145541252
99288.768711406635703
99288.723257444624323
99288.678583699089359
99288.635061661712825
99288.59296359407017
99288.552410088872421
99288.513098716794048
99288.474106465349905
99288.433977043867344
99288.390864718516241
99288.342969340039417
99288.288958847930189
99288.228381081178668
99288.161736443085829
99288.090280836404418
99288.015721797564765
99287.939821309963008
99287.864076986763394
99287.789541721969726
99287.716751864674734
99287.64589017520484
99287.577044030185789
99287.510317114763893
99287.445834280952113
99287.383832366642309
99287.324571933349944
99287.268266711194883
99287.21498577130842
99287.164478321705246
99287.116189955544542
99287.069310321341618
99287.022829128836747
99286.975823383807437
99286.927636152817286
99286.877982708087075
99286.827075007779058
99286.775423473372939
99286.723364561519702
99286.670718987719738
99286.616695783028263
99286.560103670941317
99286.499795484924107
99286.435057578171836
99286.365773703175364
99286.292374745375128
99286.215634219144704
99286.136389627761673
99286.055401095552952
99285.973304498096695
99285.890686159822508
99285.808163538429653
99285.726448968853219
99285.646270829864079
99285.568309026479255
99285.493069256728631
99285.420718981535174
99285.351026520424057
99285.283325651966152
99285.216609876122675
99285.149664106444106
99285.081314344584825
99285.010627921888954
99284.93703811589512
99284.860399887285894
99284.780969882995123
99284.699253319660784
99284.615849817317212
99284.531362453431939
99284.446420572276111
99284.361739939486142
99284.278050951324985
99284.196079727218603
99284.116453789625666
99284.039575006638188
99283.965358385074069
99283.893090636207489
99283.821540874720085
99283.749224938102998
99283.674720195427653
99283.596995521846111
99283.515638977158233
99283.430919985286891
99283.343636175472056
99283.254926967332722
99283.165985992178321
99283.077716317711747
99282.990464671078371
99282.903876180498628
99282.816952564040548
99282.728244574871496
99282.636102050542831
99282.538999530894216
99282.435884851176525
99282.326404484687373
99282.210943767277058
99282.090521618330968
99281.966544993483694
99281.840473104050034
99281.713604874094017
99281.586919968103757
99281.461026583245257
99281.336191596710705
99281.212452109553851
99281.089678327247384
99280.967643735275487
99280.846067936028703
99280.72465901664691
99280.603139218204888
99280.481192096936866
99280.358441094082082
99280.23446297008195
99280.108791041406221
99279.981034150419873
99279.850976867819554
99279.718625692854403
99279.584306795601151
99279.448726249771426
99279.312945052690338
99279.178251712000929
99279.045960572955664
99278.917232239356963
99278.792906937786029
99278.673411343072075
99278.558732897072332
99278.448532995258574
99278.342323397897417
99278.239582507230807
99278.139858085807646
99278.042805181161384
99277.948116841653246
99277.855441491192323
99277.764241073615267
99277.673731097413111
99277.58292038901709
99277.490790010488126
99277.396501351802726
99277.299600333659328
99277.200151622731937
99277.098722646987881
99276.996265234280145
99276.893866468628403
99276.79256096269819
99276.693247314062319
99276.596653389424318
99276.503331711923238
99276.413727685823687
99276.328203164041042
99276.247047886281507
99276.170494989186409
99276.098655954134301
99276.031398364517372
99275.96827225216839
99275.908562843018444
99275.85141783412837
99275.796018962777453
99275.741765139129711
99275.68841402765247
99275.636139673151774
99275.585462290036958
99275.537084537645569
99275.491696802419028
99275.449834543003817
99275.411871881151455
99275.377988205465954
99275.348251854753471
99275.322790461606928
99275.301895347045502
99275.286063348001335
99275.275916995451553
99275.272081100629293
99275.275117599434452
99275.28550860931864
99275.303660864665289
99275.329897714866092
99275.364460789511213
99275.40759589181107
99275.459678943065228
99275.521158773393836
99275.592419384876848
99275.673711412819102
99275.765163280811976
99275.866820576688042
99275.978673794365022
99276.100718120011152
99276.233027191847214
99276.375820318280603
99276.529477628224413
99276.694579333576257
99276.871892938375822
99277.062330933345947
99277.266902520757867
99277.486647097379318
99277.722518477734411
99277.975294256350026
99278.245518187832204
99278.533516245763167
99278.839443830875098
99322.552838209609035
99323.634411607243237
99323.405855637451168
99323.319894237429253
99323.381902090841322
99323.369507602154044
99323.232741278479807
99323.048207696498139