/*--------------------------------*- C++ -*----------------------------------*\
  =========                 |
  \\      /  F ield         | OpenFOAM: The Open Source CFD Toolbox
   \\    /   O peration     | Website:  https://openfoam.org
    \\  /    A nd           | Version:  12
     \\/     M anipulation  |
\*---------------------------------------------------------------------------*/
FoamFile
{
    format      ascii;
    class       volScalarField;
    location    "0.01";
    object      rho;
}
// * * * * * * * * * * * * * * * * * * * * * * * * * * * * * * * * * * * * * //

dimensions      [1 -3 0 0 0 0 0];

internalField   nonuniform List<scalar> 
75962
(
1.1696545498975154942
1.1709398702775253298
1.1718912954146751826
1.172339726380319469
1.1723362612810295236
1.1717532174710296733
1.1710120784889963552
1.1713597472898866769
1.1723716911775250438
1.1730060193241023114
1.1730749766373218534
1.1724176316339174342
1.171624774017960835
1.1716819089177281654
1.1724711048650320322
1.1733266554535464188
1.1736993676479738902
1.1733781899243591607
1.1728513781464779964
1.1729116116912075007
1.1734005277718528859
1.1734895640926130689
1.1729807167295684955
1.1724595853610517704
1.1722748808447780444
1.1722919350152285478
1.1724153298283583879
1.1725806297608412088
1.1726784844660889107
1.1727675834129935861
1.1729690251471540652
1.1731786908308907691
1.1731934368129703916
1.1730119280128192827
1.172865045030973441
1.1729157854564165042
1.1730304940057705299
1.1729598874216542459
1.1727560588809182729
1.1725561236891179906
1.1724737346842111219
1.172431168696144832
1.1724284951268890698
1.1723802897767550135
1.1722049381432506632
1.1719830863439670843
1.1718207895162504606
1.1717293844491014632
1.17175474977447025
1.1719447583669910795
1.1721929008800409111
1.1723402841897931914
1.1723526777723092263
1.1722779495257991123
1.1720772379543840103
1.1717582324846940178
1.171462746923612297
1.1713246333977787028
1.1712841490265362143
1.1712364910650672201
1.1710651874038457976
1.1708177821744827352
1.170488693980221484
1.1701295867053693733
1.1698123492737733109
1.1695326549059650301
1.1692633074244003222
1.169081200693775191
1.1691059382264274991
1.1693105066800792979
1.1694194438732581354
1.1691766566553418727
1.1686457551514659592
1.1681137492093713881
1.1677361562952703888
1.1674396259084440786
1.1671804582771974079
1.1670567332461958543
1.1671726590551507741
1.1674596119122426785
1.1676350792110892218
1.1675102201294353943
1.1671619158136257166
1.1668220401877380521
1.1666926916657913704
1.1668506336865980266
1.1672742678693759366
1.1678510298830457881
1.1683777495674299018
1.1686649041117456171
1.1686700981431299429
1.1685197102139306402
1.1683421509494762436
1.1681667841709886257
1.1679845607972147992
1.1678601306102740498
1.1678901286446765617
1.1680775988811114008
1.1683010361737866667
1.1684076845882855888
1.1683278029397698994
1.1681019270680739197
1.1678137863128097429
1.1675844705584992322
1.167500855850461372
1.1675670723392559402
1.1677237509918663161
1.1679066462504590351
1.168081529549306774
1.1682291044386241552
1.1682914744844525856
1.1682029052848050821
1.1679775497365092463
1.1677239727500721145
1.1675611156333176588
1.1675345008646189626
1.1675927133130474811
1.1676637545543295804
1.1677026460633370686
1.1676899323336487058
1.1676128044027911379
1.1674591432195384755
1.1672442166225236448
1.1670116537322390293
1.1668061153857924861
1.1666574328717060904
1.1665860309295914554
1.1666118821506887837
1.1667607906543377982
1.1670235290077708434
1.1673401157923084526
1.1676100941124516464
1.1677414817631948107
1.1677002893762085112
1.167531928747216563
1.1673482333858689053
1.1672625096817030865
1.1672952809680012809
1.1673467420935308425
1.1672504486883255037
1.1668894381205094923
1.1662884678825853335
1.1655937811246266378
1.1649736948405482462
1.1645501024292594927
1.1643770360703171729
1.1644461694744276947
1.1647076606828989931
1.1650712655253807615
1.1654107038181877876
1.1656060238470280499
1.1655931129569654381
1.1653986285209714246
1.1651257355618354072
1.1648939061456711208
1.1647822282206592437
1.1647999478440449472
1.1648995111510769274
1.1650038717871862293
1.1650405672303325577
1.1649594970637875413
1.1647330718368960056
1.1643662363132185611
1.1638982327902946956
1.1633946842412310474
1.1629400898600030789
1.1626011422135078544
1.1624095520659289971
1.1623554095920456408
1.1623833712238729188
1.1624353520082535418
1.162460690270918473
1.1624399771758104905
1.1623932504687271017
1.1623585002166709756
1.1623843159840019368
1.1625108963739687606
1.1627423738182594004
1.1630381734250587744
1.1633232916558218228
1.1635095306351164179
1.1635157677716458924
1.1633045382606566065
1.1628964718418359769
1.1623704958062499593
1.1618396159648936017
1.1614145007662941556
1.1611687661050658082
1.1602958772622293804
1.1601516312035236034
1.1600027757562851871
1.1598971430254276793
1.1598570158295193888
1.1598623663918108395
1.1598696335917311195
1.159845430854532955
1.1597907820744153273
1.159740022114514435
1.1597350525839695834
1.1597931359635216264
1.1598989888696045192
1.1600187216028454706
1.1601200162393197068
1.1601919008899128638
1.1602380611327161031
1.1602670432191402039
1.1602820528297133063
1.1602864673129433815
1.1602836368874160922
1.1602811301122148979
1.1602790743082018743
1.1602672790735752972
1.160230214436521301
1.1601611323317717606
1.1600747240281457096
1.159996111526374829
1.1599461754187780915
1.1599204485689014188
1.1598811656791558899
1.1597811046547950031
1.1595938592667713873
1.1593342543809042056
1.1590649610444356821
1.1588763311206504714
1.1588437920960787952
1.1589967164480439177
1.1593042779005462428
1.1596835337427306989
1.1600284737093118359
1.1602488752729143151
1.1602942012567887264
1.1601570274729935406
1.1598605066156388865
1.1594459753073433905
1.158960167003519004
1.1584507520202418362
1.1579691130622529194
1.1575691075547682729
1.1573060972094222354
1.1572216189575177392
1.1573304042362670963
1.1576117828018894773
1.1580127333259297995
1.1584578058157448677
1.158872519752604191
1.1592023624158667161
1.1594162096575311161
1.1595024024874727164
1.1594644583231810131
1.1593118214572963875
1.1590603539435002656
1.1587339297986010145
1.1583747062112876858
1.1580371551199217794
1.1577812256106621014
1.1576587722070259545
1.1576955341975483371
1.1578860812629154786
1.1581939297881984618
1.1585620046496996061
1.1589200744366352502
1.1592074382362864693
1.1593771163481982889
1.1594084732955345363
1.1593007387478209136
1.1590657417877840984
1.1587272157842138931
1.1583145459658408249
1.1578580596272356473
1.1573859496823102333
1.1569243393045596235
1.1564990730085211723
1.1561383650543073376
1.1558695993037626515
1.1557188449796886864
1.15570387233716243
1.1558352658396149337
1.1561108042984877819
1.1565133491016974521
1.1570119764422315267
1.1575705151922808245
1.1581560948388314181
1.1587440393712018505
1.1593225217973575081
1.1598929716409513979
1.1604648783898052766
1.1610487580363149096
1.1616502166590139122
1.1622648653093310411
1.1628770053609043256
1.1634637248763157746
1.1640000569765520666
1.1644639144151116561
1.164840958510308111
1.1651269884262902554
1.1653283151559139519
1.1654583746774129782
1.1655346121009653171
1.1655750705163943071
1.1655944209457915761
1.165603559953958035
1.1656076109159851928
1.1656098185406473799
1.1656108251566528189
1.1656110533310020116
1.1656106984409502214
1.1656110376908312976
1.1656152916386119944
1.165627762682626134
1.1656547983073475283
1.1657038674717856708
1.1657793964992209101
1.165879508551603605
1.1659924211054544241
1.1660962884754055846
1.1661646420824549608
1.1661744039633830106
1.1661141089487954137
1.1659905832289532146
1.1658278033144355845
1.1656613312090329249
1.1655270794599967843
1.1654524894217508368
1.1654487720842150456
1.1655086703101733558
1.1656096661379855561
1.1657201695551855369
1.1658075497544522214
1.1658466788622017241
1.1658249587927829172
1.1657447541079084541
1.1656203936716702518
1.1654739716181812259
1.1653301716944000077
1.1652113636063057278
1.1651323357101219802
1.1650971424820542044
1.1651005494215189717
1.1651297874980748315
1.1651686988916873933
1.1652003750218555833
1.1652109298111248403
1.1651931060757434455
1.1651459331696178978
1.1650736866842423822
1.1649829573223329238
1.1648812727258750499
1.1647736312233833988
1.1646621677352040347
1.1645466793020107232
1.1644250353110461305
1.1642954936934823973
1.1641589036842634464
1.1640208134503267079
1.1638917586335508769
1.1637852243772128791
1.163714916532404553
1.1636911231887105966
1.1637177777170009119
1.1637903863713912056
1.163896456817130165
1.164019084149835459
1.1641401734186007655
1.1642446636379748526
1.1643243953522464107
1.1643777721715002915
1.1644075229806905014
1.1644186038901498392
1.1644149443513240882
1.1643973450888387422
1.16436342404265325
1.1643093127162003064
1.1642322555698254583
1.1641338372538492241
1.1640213739796232417
1.1639071515208474494
1.1638063208626514555
1.1637335250679505805
1.1636982783138554165
1.1637023088534059756
1.163738815651086389
1.1637947738091498628
1.1638548870060270168
1.1639064279449646833
1.1639428163374585523
1.1639637660896811067
1.1639739617174373887
1.1639806856990966288
1.1639910686154826269
1.1640081030590350153
1.1640275992367115077
1.1640409082009333108
1.1640388183212817541
1.1640149351126420907
1.1639676436558108463
1.1639017128552087144
1.1638270060287350116
1.1637561130526967723
1.1636998680152605967
1.1636629090379686513
1.1636423521297396544
1.1636300624563586936
1.1636156546717781879
1.1635904733840167768
1.1635507452937430273
1.1634991386819695247
1.1634443843831583365
1.1633996798449202092
1.1633781748553120305
1.1633890721452906369
1.1634350921522749189
1.1635116584472868784
1.1636079334832580834
1.163709905985687465
1.1638033606582236512
1.1638763750365741512
1.16392120054347048
1.1639346024154368919
1.1639178437130135446
1.1638764737440929764
1.1638189857115297521
1.1637543703158839126
1.1636899258985466954
1.1636301022088697543
1.1635754165188689768
1.1635236426892157091
1.1634712421688302442
1.1634146775999816281
1.1633504831207057695
1.1632756825318579796
1.1631893013397263115
1.1630934766847820239
1.162993179685748224
1.1628942912559003808
1.1628020592568795166
1.1627202053319025676
1.1626514381566708245
1.1625983225689480172
1.1625636689165386173
1.1625504909878225934
1.1625614068480778496
1.162597544846686981
1.1732452165301936464
1.1734999756683563987
1.1723309930475662721
1.1715744561364884735
1.1715824020430511965
1.1708554451183854628
1.169992100120834877
1.1707733030517759598
1.1722212109997864893
1.1728552495689139601
1.1729378036774824601
1.1724440620250526912
1.1718282110945636987
1.171930997545687303
1.1723996750262861699
1.1727841308442130686
1.173110730415558578
1.1729866006165128312
1.172532555522208586
1.1725771910642919238
1.1731224311228352075
1.1734084581104418099
1.1731603251270088517
1.1727676445017196638
1.1725232081212950686
1.172347796547786869
1.1722685316827909929
1.1723404916695425726
1.1724269588988827095
1.1724541944199780019
1.1725405819181435874
1.1727797138483238015
1.1730606371971297186
1.1732301538821787723
1.1733055029678296499
1.1734447108727821263
1.1735976022396692464
1.1736114680464246884
1.1734953052352004033
1.1733289139855926919
1.1729938012423863913
1.1725076088338866054
1.1720895053470967717
1.1719518922946063899
1.172049805632279007
1.1721248558338186463
1.1720455899447765891
1.1718823840091823207
1.171810750593495154
1.1719396019411536525
1.1722081517237610271
1.1724568392751912871
1.1725519971075821779
1.1724327694563088098
1.1721157535112753934
1.171750889801737916
1.1715203520819783556
1.171464245668951687
1.171440080913280557
1.1713131517397934456
1.1711133207646187149
1.1707724857061534429
1.1702714333084540677
1.1697250896279400845
1.169281679121477513
1.1689840192487315207
1.168788971914524577
1.1686903713725580456
1.1687359923847928656
1.168870097419623777
1.1688779487356764086
1.1686131636824048652
1.1681734962104008968
1.1677789506817077836
1.1675408399988880248
1.1674058547292636145
1.167316455608605974
1.1673282925541781374
1.1674672674684414275
1.167626000372890438
1.1676388926847347527
1.167422984142177933
1.1670385351251069128
1.1666656038068226042
1.1664595534718242842
1.1665376364474306925
1.1669699088741534165
1.1676763867207520242
1.1684181481760698151
1.1689254706019465146
1.1690461691951066214
1.1688382521112032908
1.1684828486773310985
1.1681401227168370927
1.1678981370714280885
1.1678132231709210664
1.1678986251510516947
1.168105255910493856
1.1683058494555553786
1.1683868831796215826
1.1682845479696215563
1.1680096257974528218
1.1676617713459069847
1.1674006092614943597
1.167353183902171132
1.1675328077315367814
1.1678192959280211394
1.1680803648428275121
1.1682614014346834885
1.1683739696214885395
1.1684154835868283406
1.1683521582576290587
1.1681820574973660332
1.1679582517566671207
1.1677570221013209295
1.1676247582263692415
1.1675594416511834162
1.1675396029348794613
1.1675558279926689931
1.1675841865167759792
1.167574032158745112
1.1674835102083254146
1.1673167301473752477
1.167119417310219065
1.1669365737204959732
1.1667932152758178077
1.1666992700630773871
1.1666829227187167639
1.1667920784473972962
1.1670290388892681221
1.1673376475353687276
1.1676054696888500395
1.1677255334183960223
1.1676609682655696432
1.1674717561732146365
1.1672842043474200846
1.1672261861875241618
1.1673092002439524606
1.1674289642103450326
1.1673999817555711367
1.1670895504135503362
1.1665187687308797848
1.1658421683484840869
1.165241039918508914
1.1648440673340922924
1.1647021062645328549
1.1648064937731272828
1.1650999237581047829
1.1654714994709847176
1.1657797590994325443
1.1659005937107542739
1.16578146687221329
1.1654762803673592853
1.1651095137029277016
1.1648090084728373039
1.1646538641634993638
1.1646664522943563913
1.1648037903613788213
1.1649813673388920154
1.1650986544239911868
1.165070090422643867
1.1648514657793029858
1.1644574087783692296
1.1639529897381246659
1.1634289069402556915
1.1629731369630078586
1.1626454921618536442
1.1624571770193068421
1.162386569704798589
1.1623956688084429167
1.1624376589671072679
1.1624835555611792159
1.1625251074240388061
1.162564722434291653
1.1626103562652985168
1.162674030380933532
1.1627638052030435656
1.1628872866446970935
1.1630451802590917598
1.1632189061090658644
1.1633657228508909043
1.1634127073611377767
1.1632926361795985493
1.1629828973218105936
1.1625278370971390274
1.1620320543903945865
1.1616116651759371692
1.1613468464100946687
1.1612516935421903774
1.1602756058066596712
1.1602079619740732763
1.1600697251328393467
1.1599101970378709048
1.1597830717746233642
1.1597205014326577022
1.1597148186011101423
1.1597247325916750782
1.1597129975971085525
1.1596733341790772531
1.1596325577548978192
1.1596312063212756982
1.159695553603727447
1.159818342433804661
1.1599704826036625338
1.1601157706004576742
1.1602269845178763141
1.1602931837785634972
1.1603129726409759925
1.1602927773560245406
1.1602444544166932161
1.1601847575704617999
1.1601313421793928438
1.1600928397750274179
1.1600662679583952919
1.1600358054562003307
1.1599925393002619156
1.15994346780307378
1.1599075237235345615
1.1598972229138708734
1.1599007324046279876
1.1598786057876000477
1.1597851290276521841
1.1595936644642275137
1.1593250441682947383
1.1590469610956908308
1.158852633847283542
1.158816849218736289
1.1589662796696147407
1.1592648417546391748
1.1596218333670376133
1.1599283622737845967
1.1600997904700540708
1.1600979135119808827
1.1599322248805508107
1.1596388944936772969
1.1592617063466721383
1.1588393338996993975
1.1584036681497513754
1.1579885674818775065
1.1576341593105081706
1.1573862401460845994
1.1572849134878127053
1.1573498453048187695
1.1575690409957684057
1.1579021901798636218
1.1582906087494451164
1.1586732722553192421
1.159001152715955163
1.1592393805291538733
1.1593645694074441455
1.1593608418164300655
1.1592282373075248891
1.1589790733251756905
1.1586437795552084751
1.1582697003921238466
1.1579212793495934353
1.1576645823814608605
1.1575528370150840463
1.1576110127004697326
1.1578281105382981497
1.1581612697450895944
1.1585474582389689857
1.1589135610156282574
1.1592006468445155143
1.1593664126691540783
1.1593897528045860046
1.1592735011065116169
1.1590325160728114362
1.1586883155183933525
1.158267849847623765
1.1578004598881332932
1.1573153374017206563
1.1568386828900842911
1.1563966777553114085
1.1560154954573587105
1.1557237707226757362
1.1555476216348021801
1.1555103838951885642
1.1556251595222719608
1.1558924934623047154
1.1562959049824803603
1.15681142479432153
1.1573948203247386157
1.1580087042364293204
1.1586296995161466938
1.1592475794077450324
1.1598630927494970599
1.1604826526251292851
1.1611103265669402429
1.1617428919517875929
1.162367940895271845
1.1629669180567623332
1.1635207083745073842
1.1640136664139932865
1.1644360059674174757
1.164784830645136493
1.1650634386074787407
1.1652807148044157515
1.1654474296369952135
1.1655742544374168013
1.1656701776803684023
1.165742780631381148
1.1657950215339469846
1.1658291349108398371
1.1658477553314194886
1.1658542916841418968
1.1658517528699416932
1.1658462609428801304
1.165843910737304201
1.1658490105431533745
1.1658666470362579748
1.1658996150831977268
1.1659487918889495095
1.166015093213587317
1.1660961668515692491
1.1661822974653088814
1.166255480059059213
1.1662946928611941377
1.1662838097067360632
1.1662166730000631532
1.1661005012508394163
1.1659572516650851259
1.1658182407707142758
1.1657152359341511616
1.1656712210461079859
1.1656930556973281732
1.1657687041804074557
1.1658708728700439838
1.1659650678764550413
1.166019815875378951
1.1660144877302469624
1.1659443446164310387
1.1658203677530478704
1.1656652261395747949
1.1655069539771008014
1.1653737564057480292
1.1652872406509335867
1.1652584084844694878
1.1652858471508669158
1.1653567453699815726
1.1654504611813938375
1.1655427207679611712
1.1656114541925504113
1.165640504482673423
1.1656225879273107715
1.1655602107027376313
1.1654616324728392929
1.1653383368735319436
1.1652010827351486633
1.1650578971643428261
1.1649129129765378732
1.1647670913547663041
1.1646181701746192161
1.1644659454338126547
1.1643114017936404547
1.1641606057735220947
1.1640233179977999001
1.1639110456867511889
1.1638364032724495267
1.163809419161573766
1.1638339872668901354
1.1639063717257966957
1.1640148084109005477
1.1641404713942833382
1.164262534290415152
1.1643633605322731839
1.1644314135178317482
1.164462648852616411
1.1644591723999802024
1.1644273232881880986
1.1643753105640437528
1.1643109344905930858
1.1642393944102951142
1.1641625267829471824
1.16407972080657518
1.1639900325048559981
1.1638948995007638576
1.1638000029268860125
1.1637143631196458227
1.1636482693175489445
1.1636108425248115061
1.1636073411051377491
1.1636365986606593825
1.1636911572210362209
1.1637595431402676383
1.1638303348586453989
1.1638958014166271848
1.1639531504511211324
1.1640034888874122299
1.1640483823121290374
1.1640882860145997935
1.1641213059491233306
1.1641425330587995557
1.1641440805434630779
1.1641186200000965822
1.1640636577412941666
1.1639837326327244771
1.1638893552675764198
1.1637941907097475447
1.1637123446387001025
1.1636551004358330896
1.1636283551169099848
1.1636302629755888027
1.1636519059449157432
1.163680612751355925
1.1637040665869895495
1.1637136735461346415
1.1637065337675420729
1.1636855704882467233
1.1636587289249384902
1.1636361285278480349
1.1636273265038095115
1.1636379972827624041
1.1636690063439465437
1.1637165964502045323
1.1637734886945536594
1.1638305600395666417
1.1638790818098023738
1.1639122250468070252
1.1639262086209853919
1.1639204997059822144
1.1638970729186708386
1.1638596946802883814
1.1638133042917222504
1.1637618827443514391
1.1637080080097643719
1.1636528760443949349
1.1635962568356648106
1.1635366728767957412
1.1634722644290571569
1.1634021461262451513
1.1633265140551440897
1.1632461595606999882
1.1631619081780397718
1.1630751157722707401
1.1629881179325975982
1.1629035142027221994
1.1628236321662681618
1.1627502834029961321
1.1626859992773201924
1.1626348423361294593
1.1626019044459772189
1.1625924619394112369
1.1626103909471989795
1.1707755212570281067
1.1715629378423244589
1.1698776115139009057
1.1692681533134439142
1.1707603472864580585
1.1719479395027312396
1.1717140610940706136
1.1719084854777159777
1.1724763865408855956
1.1723572640081552088
1.1721528928922635426
1.1722103960518450716
1.172376926257459262
1.1725654770567752738
1.1724008684401883151
1.1721159130926863678
1.1721989857417134395
1.1722250312757878099
1.172046339968890738
1.1721847577378858851
1.1726945258492964541
1.173094004413270719
1.1732183464384662308
1.1730961976832003923
1.1727390397072110506
1.1723013301454054957
1.172082400961368398
1.1721926808926919072
1.172371529053723771
1.1723481023227426689
1.1722401907735715554
1.1723743691305816839
1.1728472882610185835
1.1733943765440573159
1.1737495389937451229
1.1739378677822807084
1.174033046744202391
1.174031484253824642
1.173918864446124255
1.1736717320799621156
1.1731923523232128392
1.172528914199050698
1.1720885333092621039
1.1721272408517611208
1.172408790778800558
1.1725425236815620877
1.1724236929629070492
1.1722079070076021345
1.1720574362572406812
1.1720386500616615244
1.1721447276164815854
1.1723083501685247487
1.1723909654618147602
1.1722339810367432555
1.1718548734157612223
1.1714902749988995723
1.1713651026266893584
1.1714287146355710778
1.1714689649913685443
1.1713548751374158741
1.1710462452275707257
1.1705591469290330675
1.1699007518749668932
1.1691987628336721894
1.1686698609308809882
1.1684033644661537821
1.1683377861481933913
1.168373988976246336
1.1684284278859011774
1.1684338424768159204
1.1683189550407067081
1.1680726349347756443
1.1678100974276957036
1.1676547817978564225
1.1676122797234000927
1.1676003744771041859
1.1675778861939396513
1.1675391046750478452
1.1675290152644774988
1.1675143697539456245
1.1674230142227268736
1.1671733361961194042
1.1668116047484426989
1.1664581114552703411
1.16628667614327175
1.1664691699961005078
1.1670421357243414562
1.1678830487619822343
1.1687268108647528297
1.1692538102817793266
1.1692752008538453978
1.1688691711782317473
1.1683063313980912579
1.1678467248403747725
1.1676426681572560362
1.1676873872693089851
1.1678884001984446428
1.1681296142614814304
1.1682994592347863971
1.1683099026226393402
1.1681365012807463089
1.1678136796488800542
1.1674847672522921105
1.1673145523608421392
1.1674250734830367016
1.1677798965866654779
1.1681854753114040424
1.1684371174941101668
1.1684786312011417042
1.1683919391785579922
1.1682801981293622351
1.1681756988910305672
1.1680571615003167985
1.1679170207854459029
1.1677780435534503845
1.167660464807660059
1.1675761154047292756
1.1675352939515097894
1.1675325083781258328
1.1675436994103995936
1.1675094558985421589
1.1673927495044029712
1.1672251603097127948
1.1670696330009810993
1.1669663116142570125
1.166910283385639957
1.1668735088183783688
1.1668665129408892778
1.1669229724246930058
1.167062325615324081
1.167255029458200255
1.1674316728819933431
1.1675225563230753334
1.1675002034226258374
1.1674100261696418457
1.1673361583841710409
1.1673535368577532267
1.167445270023673487
1.1675173638466582737
1.1674194270975215559
1.1670612400140005782
1.1664950178401845005
1.1658824875822961786
1.1654010012259137241
1.1651494444741272716
1.1651367687741389645
1.1653159602114675497
1.1656150194036882795
1.165923857261227603
1.1661178965558542941
1.1661008176852301066
1.165855324438672902
1.1654636715146076131
1.1650565500914069617
1.1647495504504639108
1.1646173322157380436
1.1646788522980895397
1.1648844275611358601
1.1651247684785217551
1.1652600325586217611
1.1651813520284413084
1.1648593296209344139
1.1643528570435663916
1.1637790738830613435
1.1632594009787211586
1.1628709293489343235
1.1626357238905768998
1.1625276269977675714
1.162496405238871322
1.1625063292435673379
1.1625382490242130995
1.1625910658834295308
1.1626723471701663204
1.1627762306667268621
1.1628915529835459619
1.1629978137508758529
1.1630746103355000809
1.1631257566404140658
1.1631753715785522196
1.1632396126698631988
1.163299581596136445
1.1632954600220410946
1.1631626959384961939
1.162876310612918962
1.1624800772794467996
1.1620735773633490417
1.1617530751619618012
1.1615630321375502998
1.1614833743729759963
1.1602422568786450174
1.1602051539300350935
1.1600787817408300118
1.1599029256962520851
1.1597385434329139375
1.1596317196174288355
1.159596922248292028
1.1596086965377341294
1.1596269149577802526
1.1596301787034106745
1.159626910000163047
1.1596431690980313345
1.1597065690684382755
1.1598250222297641354
1.1599828351538026272
1.1601485396642927661
1.1602852401870851207
1.1603657014723265384
1.1603754142132909344
1.1603180780847179854
1.160213616451195362
1.160088749149250642
1.1599719213261165951
1.1598805760930586128
1.1598187775608042038
1.1597774640907472232
1.1597488635991626271
1.1597328446814649805
1.1597365458579327324
1.1597637073968702914
1.1597971704738301302
1.1598026076949297103
1.1597408102020545506
1.1595913452744004424
1.1593722961134818039
1.1591412063305239766
1.158975900888653765
1.1589407557064070886
1.1590569308527092218
1.1592939726793964894
1.159576659767975304
1.1598146420305353033
1.1599378676447049674
1.1599188027794702371
1.1597696058091893079
1.1595220639992065426
1.1592097240165657457
1.1588587322394698909
1.1584896429734345968
1.1581291791060244201
1.1578144275401651697
1.157589674975266103
1.1574926618172565185
1.1575391165297705953
1.1577173504027113982
1.1579958771084604141
1.1583303923034835581
1.1586747195802726829
1.1589823412762991772
1.1592134537366096669
1.1593361236235313338
1.1593292572197784196
1.1591877511788037936
1.1589298752076107046
1.1585956772632350908
1.1582406567488527926
1.1579254342229960972
1.1577085823281747512
1.1576310794255320058
1.1577048728511352138
1.15791296391091314
1.1582139275699330216
1.1585464456145033729
1.1588621657987205893
1.1591040620061361377
1.1592413086146950985
1.1592570211953958648
1.1591519435102572988
1.1589399807536118203
1.1586369292275500165
1.1582643290281271486
1.1578448816142186129
1.1574021608630313818
1.1569609221536576449
1.1565442356703055093
1.1561776022324559143
1.1558872759184415369
1.1557007523308153729
1.155640105020411923
1.1557220516815689404
1.1559473617385078725
1.1563077746318730643
1.1567785743947482935
1.1573313871777395345
1.1579368888095051826
1.1585763247033311618
1.1592414314967491862
1.1599305256623260174
1.1606402505674979775
1.1613587955846949029
1.162065190913746493
1.1627334118918344341
1.1633389598002548126
1.1638654602235642965
1.1643100571468893989
1.1646793829916046725
1.1649848349291183069
1.1652383518096869341
1.1654506435955935828
1.1656282114789435767
1.1657749748730044104
1.1658922827205731032
1.1659813778868262091
1.1660429124804372325
1.166078049884643919
1.1660901203159077522
1.1660858721480962252
1.1660758015009624611
1.1660708604129628174
1.1660801843002059908
1.1661081248839868518
1.1661546233248258897
1.166215075525157463
1.1662819954873979711
1.1663494314104854155
1.166411604107576494
1.1664597784884265241
1.1664834524681970684
1.1664717964762716385
1.166418001319252884
1.1663230942764959419
1.1661977904793325855
1.1660629582117867376
1.1659451830713034592
1.1658703720650178681
1.1658541038870737783
1.1658963013549481502
1.16598067240443104
1.1660774572440162355
1.1661522869283615922
1.166177386935339344
1.1661379101373046119
1.1660350259282314944
1.1658857714629469182
1.1657181900762052518
1.1655645412354493917
1.1654532947465130466
1.1654045842036264702
1.1654260330651005084
1.1655116331992547707
1.1656423085204996593
1.1657898626738112391
1.1659240225635687516
1.1660183889004795965
1.1660566481755598733
1.1660327221615813809
1.1659519036543353199
1.1658267167217677418
1.1656728455079758966
1.1655043532379194549
1.1653310661800624359
1.1651582816336132353
1.1649868949457129474
1.1648155290319548438
1.1646437893158907428
1.164473546286567851
1.1643101709561138879
1.1641623055870773396
1.1640398676603425088
1.1639540709124076567
1.1639141843417279976
1.1639243235716809632
1.1639826815517402281
1.1640791566258512635
1.1641954659905895397
1.1643104095762584205
1.1644040636040691172
1.1644617670686474575
1.1644764958631519391
1.1644485714527033071
1.1643845013673197464
1.164295673920502594
1.1641945623459808434
1.164091501061904177
1.1639934843607782078
1.1639035755295010777
1.1638211584250970354
1.163743937957105512
1.1636719225727198967
1.163608956574591291
1.163561905370846139
1.1635381634315200561
1.1635426780389990231
1.1635769893494312122
1.163638034908461405
1.1637185655342021651
1.1638090363208322131
1.1639006914419738337
1.1639879797355130453
1.1640679670250078104
1.1641387185598477405
1.1641970879792282734
1.1642379198590944167
1.1642547804180363169
1.1642418028914804928
1.1641959206573828656
1.1641189712632253883
1.1640189631418245142
1.16390890756142662
1.1638041686650915096
1.1637187581787580282
1.1636633771683364547
1.1636437188640598173
1.1636595726469045609
1.16370431474256808
1.163765758809089057
1.1638297117998159802
1.1638833237515968655
1.1639181747233913189
1.1639313657346215258
1.1639245460992901915
1.1639034102611913735
1.1638759579580419956
1.1638504131497899863
1.1638330424763438931
1.1638266176417231268
1.1638309791108412128
1.1638443067298336331
1.163863323751251011
1.1638840873811511223
1.1639026528232290225
1.1639153383579294854
1.1639190994808616963
1.1639118294035539769
1.1638921108459230336
1.1638593965550603215
1.1638137412179856423
1.1637561112806329433
1.1636884254684201068
1.1636139028836114395
1.1635363839199541758
1.1634598196742571563
1.1633871774227979579
1.16331997938420173
1.1632580740827194177
1.1631994371830267632
1.1631411440033694316
1.163080647054464789
1.1630167920968024209
1.1629503180047646715
1.1628840987122670558
1.1628233747340526172
1.1627751934198993222
1.1627470582590540005
1.1627453052240432907
1.1627737483947067076
1.1726950807239100438
1.1725676716979060998
1.172221857961477598
1.1720097729709446632
1.1722580323583291495
1.172914505685277442
1.1727875080864023083
1.1726766058393569558