/*--------------------------------*- C++ -*----------------------------------*\
  =========                 |
  \\      /  F ield         | OpenFOAM: The Open Source CFD Toolbox
   \\    /   O peration     | Website:  https://openfoam.org
    \\  /    A nd           | Version:  12
     \\/     M anipulation  |
\*---------------------------------------------------------------------------*/
FoamFile
{
    format      ascii;
    class       volScalarField;
    location    "0.0095";
    object      k;
}
// * * * * * * * * * * * * * * * * * * * * * * * * * * * * * * * * * * * * * //

dimensions      [0 2 -2 0 0 0 0];

internalField   nonuniform List<scalar> 
106891
(
0.024202928728281294934
0.024186366680972130189
0.024156070117387507673
0.024139688098997059973
0.024109519657687046579
0.024093489442625751207
0.02406283563974781145
0.024046890883847597126
0.024016014355264750368
0.024000598499450027934
0.023961919113371157875
0.018806716387015302849
0.018840739114952185368
0.018985048800947840197
0.019427990855131832548
0.019992394666005938036
0.020495751914684005174
0.020924557107904868947
0.021273673879626517347
0.021553434756428405811
0.021771441939831600448
0.0219311121638453288
0.022029062250028010744
0.022071623098980763106
0.022077615094100770665
0.0220671754035519814
0.022004046286340409044
0.021765608255101178553
0.021448700472793985616
0.021248468118853208048
0.021162864538253604862
0.021153366065090755538
0.0211916035669111949
0.021414028670153718859
0.022163381531354175297
0.023007599421514569882
0.023583369663025571805
0.02392673875620151755
0.024101653307916165447
0.024181611490235198347
0.024227133999909954837
0.024275469061441228014
0.024336570697322701395
0.024408852601276301297
0.024476248493420501434
0.024525654885786115494
0.024549560880880678948
0.024552467643179348017
0.024538617520713359998
0.025649690276286420121
0.025621324390867165899
0.025607099676663920562
0.025578770088192741977
0.025564315119183250724
0.025534800717464278819
0.025519046125068400171
0.025487680964754115542
0.025470444173144042577
0.02543843813714188884
0.025420416980401788765
0.02538781117580526589
0.025370054679703202966
0.02533770193228316453
0.025320513295955440064
0.025287597861915939862
0.025270830743530307838
0.025237892284400403886
0.025221653920471053673
0.025180590660986913731
0.019578748493302631367
0.01974285834648682042
0.020217278293275554868
0.020754530637319405784
0.021237559786507938242
0.021668677934988812839
0.022061398237678313955
0.022425231079674524254
0.022758179992077184201
0.023036842933339914119
0.023237473456253151388
0.02334904826881492243
0.023388128479904627538
0.023387680874790119784
0.02335826414182130828
0.023212921783240404033
0.022867871611624266542
0.022609194155878926946
0.022476309667500041223
0.022442713613570752784
0.022458525651375599308
0.022586375008434241701
0.023079670241387462148
0.023721074804238656553
0.024175087530857206769
0.024478051585849806837
0.024679498086929905348
0.024830307036591028197
0.024966968158001066197
0.025110870111973770946
0.025265768313706658821
0.025422819874848619909
0.025564143231329061051
0.025674634427949809268
0.025740684812828602823
0.025763789495603105911
0.02696834880802877546
0.026937709140811252201
0.026921721119521697246
0.026890632895713900002
0.026874311243860072446
0.026841763871590054724
0.026824302809040499046
0.026790108289564275312
0.026771122581878848551
0.026736549352552502895
0.026717085784414829758
0.026682295373559088147
0.026663181739798261921
0.026628549729140804647
0.026610395345943196194
0.02657547431401015639
0.026557897811345092254
0.026523137014146339063
0.026506067003105260316
0.026462619044093704107
0.021105256642078858154
0.021606238267139740716
0.022006507992509333205
0.022323320071716105939
0.022598782583141113073
0.022879339676724834429
0.023207551908924657635
0.023591590604019347516
0.024004317627630219339
0.024389211217953430527
0.024689505533757906408
0.024870749802468561374
0.024941705831485153078
0.024946614153077559944
0.024914827958128080848
0.02474224726407671382
0.024250852295121572838
0.023808998960423481683
0.023544484686576831051
0.023432074284162499739
0.02341557967106853641
0.023447796667227193551
0.023634595841460565718
0.024166258631853995698
0.02468859459749906185
0.025102211372989916005
0.025434239524554098921
0.025712814264648903989
0.025959166274664231128
0.026186752120077042699
0.026396997032999403726
0.026586279156262930534
0.026739197947554145529
0.026848259962163376069
0.026906629253229036314
0.026921687799895236554
0.028324657556775132555
0.028306547617610637591
0.028272250184855518551
0.028253626688845786402
0.028218070676412677217
0.028198845565367686855
0.02816188465745558811
0.028141301099165298011
0.028104149811813576576
0.028083278267241357229
0.028046017870286085727
0.028025405532681138543
0.027988276556039252269
0.027968960146650102827
0.027931962826774157233
0.027913562318366225146
0.027876981038100798888
0.027858989226594948335
0.027812913215571073017
0.022486928960105543457
0.022773136367363052551
0.022956857546464572162
0.023119408172951712993
0.02334707614685550478
0.023689092370376804014
0.024161146173740599696
0.024728373022624910299
0.025319779981494712484
0.025845529276126960605
0.02623438653585656935
0.026456239287370831442
0.026535862749888946416
0.026538784253027154075
0.026485719701055138869
0.026208085058157557651
0.0256176788527298048
0.025200918594940949907
0.024989410524425832716
0.024930730666205953155
0.024938463698233829385
0.025031892740540448439
0.025427624255838499057
0.026086803010328146746
0.026599855946412353375
0.026969479709430959485
0.027234983841666705884
0.027439228121603233962
0.027616066497109837546
0.027785090888357073802
0.02794912560467925286
0.028095161256005460326
0.028209739045079930408
0.028277679807365570241
0.029817328326087026019
0.029780757171018707591
0.029760362867902213913
0.029722904713384342562
0.029702307172748732694
0.029663606233045428789
0.029642606392211189037
0.029603216596833601543
0.029581597750434271421
0.029542078734772894699
0.029519976719603602255
0.029480134369039512343
0.029458117408894212569
0.029418354443232156564
0.029397596196359992299
0.029358085027328204714
0.029338488295348266049
0.029299527236364947269
0.029280399942930673135
0.02923130427763804759
0.023207211456399517296
0.023534427541302239267
0.023980680092718174162
0.024380299514010526224
0.0247501513764994234
0.025117294053736534398
0.025511572460452748567
0.025939668520032450189
0.026375757401072671277
0.02677644726932897068
0.027091389229605186001
0.027288316240520936462
0.02737260818554704267
0.027386235035655251413
0.027362513816467197436
0.027212706289134011572
0.0268261694609923107
0.026551953228158241965
0.026436811054011712802
0.026422148741342139922
0.026465339048956971341
0.026711697787792657022
0.027480455190009484695
0.028271555584921996551
0.028810752263237669746
0.029130942287396429519
0.029284734642797335957
0.029336727039789595173
0.029343663964072005251
0.029339728060914622987
0.029337124736486700632
0.029344657665964186261
0.029387594237413827702
0.031310816993012809129
0.031288249371124267351
0.031247175781206660422
0.031224654334024014302
0.031183200266984394122
0.031160981712351782519
0.031119125424462625723
0.031096592307121393578
0.031054842777035591289
0.031031944189289530772
0.030989629940147186971
0.030966244698781782846
0.030923444932780364686
0.030900967438372606982
0.030858419452057851001
0.030837157020303606475
0.030794975175820603341
0.030774151337624941482
0.030721383427019736956
0.025522489191425044852
0.026104522114262389276
0.026545335848860127786
0.026880915046117951489
0.027145683341068316263
0.027375991592086146298
0.027597251700929279622
0.02782175611333868176
0.028035215690470301209
0.028207390435151559471
0.028310023150674396702
0.028343883088441813173
0.028341223215657330992
0.0282907613272853041
0.028065275779561665859
0.027757969267361393834
0.0275864937128073133
0.027533494162497351015
0.027539969549300720442
0.027641232886272227437
0.028091158441035424947
0.028877730962416560401
0.029483563402033327594
0.02990757077821952839
0.030196045064112796152
0.030401933360048427613
0.030568715171211131854
0.030721969164164572574
0.030869024934787773345
0.031005414601408012171
0.031118226665088618427
0.031200177390053492055
0.032917049643419918348
0.032892189998609280832
0.032847905086406774255
0.032823838148472644916
0.032779854716167372564
0.032756721457863888225
0.032712962776486637084
0.032690061712950184425
0.032646348254064441741
0.032622841172088509754
0.032578092723661314367
0.032553657443318409492
0.03250798800664055771
0.032483524586877102203
0.032437371217948526847
0.032413831402931872483
0.032367832862899036106
0.032344696569895213523
0.032289888635535279882
0.027090552717573452429
0.0273694987315574699
0.027662714624691879528
0.02800906840590964772
0.028422720272192909113
0.028886107073829037778
0.029352384443939678882
0.02974685948926736323
0.030017002302886414827
0.03015228265988374734
0.030187370539014459631
0.030176341138815100662
0.030073612182479978611
0.029666327065381262185
0.029154430035998862153
0.028851765369024812147
0.028731243222887278138
0.028717411212781363689
0.028769304902016866465
0.029052472354988857078
0.029767575937658611457
0.030387027466677405535
0.030838407060476764193
0.031176435882260052079
0.031467578700940815328
0.031760897812483444846
0.032074262160240854524
0.032411406890357853661
0.032743321608467407247
0.033025534545261261976
0.03459423453833826434
0.034547111158176900536
0.034521206798719283881
0.034474739723081765375
0.034450776832097428082
0.034405247736731446595
0.034382010829711075195
0.034336585921760025275
0.034312609512052338889
0.034265747589131388684
0.034240391101212623581
0.034191603893610263143
0.034165119035813942827
0.034115141731972893624
0.034088876739790954784
0.034038566512662370156
0.03401266282790357115
0.033954694914407231032
0.028122072054478999131
0.028313619533853424948
0.028539621578262411306
0.028863604540188238928
0.029325701837436948805
0.029923327508422224025
0.030598610050489190998
0.031231808794633320742
0.031708323497554646853
0.031969993346762121122
0.032046636874978134957
0.032037569621111046392
0.031911409492834184876
0.031430763936190805885
0.030921649613793428246
0.030660578720496635408
0.030583757855325827135
0.030588892743985136857
0.030685472863852949338
0.031091668111863732943
0.031668368819707332085
0.032078399300353693802
0.032351469514104780334
0.032534336266368951707
0.032690810321982469167
0.032892105861477685669
0.033178680716048715438
0.033551706257111728327
0.036505250916591645838
0.036457078985725317744
0.036429725396888663902
0.036381919813246128836
0.036356963375785755765
0.036310418961665598403
0.036286681729245935657
0.036240888705550658444
0.036216361951723535784
0.036169087677308114914
0.036142618736900652965
0.036092327091790783744
0.036064111192420755803
0.036011116470906094633
0.035981996868358893937
0.0359288168938274588
0.035900613295000299852
0.035844288086669492954
0.02998716088471100466
0.029988356559476490176
0.029982627959672939616
0.029983120704322116512
0.030021863012813197746
0.030224017395815733211
0.030935974209134367574
0.031819562173985883879
0.032401580039086316787
0.032685280555333977304
0.032753786822103551912
0.032733954636565802676
0.032572192102005077807
0.032248534869775261069
0.032090499131923681808
0.032062104860559131891
0.032099359590860514213
0.032338066777441248911
0.033010276864702287059
0.033564353972117176583
0.033867500782130237347
0.033980535538994799394
0.033992090161542691529
0.033966996619803221935
0.033900686023013930359
0.033880296151357243428
0.033891201394980911832
0.037997994150497114985
0.037947765522596037246
0.037908637822928671623
0.037860240362395158886
0.037821300235507837595
0.037772878473108027764
0.037734929803060229814
0.037685670814343721902
0.037646191363139513975
0.037594613976314521231
0.037551620401361139601
0.037496538106543311764
0.037449453178116307028
0.037392382161508558314
0.037344042761246018514
0.037287276377474441735
0.037240994243683170351
0.029976645684482234461
0.029614837568487997754
0.029170550957598004316
0.028892749343477588941
0.028771004869581558866
0.028753347605784514845
0.028796808728607632688
0.029071813509099372203
0.030149347912260409527
0.031776448603480805799
0.032907430296856415852
0.033524754087737654307
0.033766396509928742198
0.03381340159319518035
0.033810319294334194307
0.033810955869835235266
0.033848840945243152678
0.034056548652881379891
0.034512589358773451687
0.034805857359654086836
0.034912391423665013745
0.034913154765737745844
0.03483134970931154456
0.034438473516387790863
0.033585123804422058191
0.032945245343320349318
0.032588541288722516764
0.038041540213220155497
0.038005244574215696352
0.037934004263586250383
0.037897599820295523043
0.037825903659318975414
0.037789190773560896175
0.037717111090307620103
0.037679653866029637344
0.0376049070706410693
0.037565266641875934284
0.037485692655698739373
0.037442358287639913861
0.037359229036056269824
0.037315287554990549113
0.037210907573870237453
0.037220347827988581324
0.025093254603607697412
0.024673415084225065047
0.024363540871521090908
0.024158017211094236221
0.024043507668860097937
0.024002514603727754389
0.024002327544523541225
0.02403854931742257714
0.024220022167392503409
0.024901427897427812902
0.026617052791299975617
0.028254179127600351218
0.029476781174868599278
0.030295657277778231115
0.030794377793508544844
0.03107530145408930744
0.031216722087033944855
0.03126538978314899464
0.031265857137878015626
0.031224048832244274271
0.031028782670594130116
0.030359680086410493344
0.029394482465628313239
0.028599039671339622493
0.02799321282846799902
0.027569205178746943735
0.027310940648191658897
0.027189151887294083637
0.030740050854274794667
0.030675743278066117115
0.030641878948918274683
0.030577264976420971687
0.03054304811638948805
0.03047809945577910698
0.030443631970468364167
0.030377290718122222646
0.03034194492344824759
0.030272875006546847571
0.030235727042728258868
0.03016435762120296335
0.030127055364136706705
0.030038518545344873589
0.030061636144010400046
0.024134617389913182173
0.023881308787833122054
0.023678581327058405293
0.023533924465492465222
0.023448823403962953948
0.023418407990532217472
0.023419015859866464113
0.023456475525939546323
0.023640316593795562827
0.02427804145286021828
0.025248141296148055718
0.026077644014519028859
0.026742406981498115237
0.027254906615594605424
0.027635391802464225747
0.027897310936086994193
0.028049888949919356967
0.028113086732469746987
0.028123104515996068253
0.028112461129051278391
0.028052390087298564175
0.02782959450205866811
0.027389540335646334057
0.027011234650178427008
0.026729611001607152254
0.026552052055227523542
0.026467390810598831474
0.028696975395689754834
0.028670036798744889112
0.028618248828525288951
0.028590826843457328027
0.028538262326858774426
0.028510712176595936346
0.02845712898652877354
0.028428974687272314664
0.028373524412299053199
0.028343731071409614813
0.028286105962104905048
0.028255921806380864675
0.02818615250527044952
0.028180384678269276844
0.022648526893348133737
0.022538212876854115535
0.022485922279511221661
0.022471843950548187063
0.022476614477283003712
0.02251899006570301856
0.022686657490349641797
0.02308335555347435647
0.023525590785800510468
0.023982759979526424576
0.024451841033815712584
0.024926494755452929808
0.025393281296938664815
0.025828030790627686669
0.026195003286268694204
0.026460159857417259177
0.026611782937474858651
0.026665653018512300299
0.026669265892699734605
0.026641065119132230354
0.026499372810763678621
0.026120544462348654902
0.025781331863091807438
0.025562791701290658863
0.025454873771918736652
0.025428865662079823406
0.027637186110438787673
0.027588344645289357426
0.027562329905122508189
0.027512820171666698549
0.027486677300877681435
0.027436147375705287332
0.0274095830000739768
0.027357961177258270646
0.02733049829247594098
0.027277139204693667124
0.027249394982527843506
0.027187716351070850135
0.027177224156758640616
0.021453771784518276683
0.021455066471501020586
0.021487632413112106589
0.021646963976154991877
0.022091264717869572159
0.022549387746315749381
0.02292830600885129716
0.023244276800703737168
0.023510511781387927882
0.023756537535797681709
0.024010591221753158769
0.024285474276180156472
0.024569559066958096549
0.024829886651949011067
0.025028757021809157346
0.025146427644248306454
0.025189323196997379789
0.02519250593408213848
0.025170612977771102126
0.025063412432685061582
0.024804561135551395773
0.024589962713862680704
0.024457347116081138566
0.024401278581200638168
0.02439400614998526659
0.026540399045816159135
0.026514898128139785527
0.026466477526347932658
0.026440676107720349763
0.026391344586899196517
0.026365367877828803367
0.02631553192200425384
0.026289252351088348431
0.026238111250672636887
0.02621175968502432313
0.02615276833825924338
0.026143137804624475007
0.020546194662697424976
0.020560889163255116618
0.020648989205796049878
0.020990592647332540627
0.021585303512026456085
0.022090570632446765442
0.022491026905986803708
0.022786745375804846186
0.023011578426920194923
0.023208740954251849686
0.023413098967793772448
0.023632057287371239368
0.023844357349085999742
0.024016071546963130984
0.024122554004073541029
0.024164853684741305351
0.024168941406076768774
0.024150938929759183105
0.024060223255896670547
0.02380554233635769415
0.02357180861923645343
0.023429182086229120852
0.023370179021862360486
0.023363654427867371066
0.019799423260979765599
0.019927326349389658244
0.020309016575503525959
0.020758927504820504778
0.021171038864374797095
0.021527067536702575168
0.021821392887318522696
0.022057878505276410502
0.022252004088585450314
0.022418628903519064594
0.022562813436135011058
0.02267601449325440735
0.022748329778793104083
0.022778318294812693878
0.022782068195993307458
0.022768453970497339739
0.022696161212950708569
0.022470224857560117115
0.022231194704737177598
0.02207268713594971038
0.021991551289713570649
0.021970906392925954043
0.02197980980547429436
0.019665214939804318006
0.020301296718903610178
0.020844912290932025162
0.021261495897513995462
0.02153668860719743644
0.021683615885204472057
0.02174161879843927378
0.021757257669963874641
0.021766208726341416263
0.021779095025649685552
0.021794108195194106942
0.021800621398838385123
0.021800386544104707193
0.021786837451133446442
0.021726359459343248109
0.021553865904630917227
0.021379789473172507858
0.021257607215593131433
0.021188825002012877385
0.021166700934205445739
0.021169038400680521145
0.021185745691704886695
0.021373419868853691522
0.021439150636898517133
0.021445456928155675475
0.021435754035179090116
0.02139596904631756169
0.021306306729732646388
0.02121187441406371943
0.021102082434030340619
0.020968492803374958605
0.020818615698050234319
0.020668660231312589032
0.0205342882876771958
0.020429641535789792861
0.020363598255019564609
0.020335698260148343114
0.020334606149075111492
0.02053928634016219737
0.020533895720781250582
0.020506039557158694392
0.020409766606746704287
0.020253752751728238551
0.020098740424637211166
0.019953960698684755637
0.01982666664985975602
0.019726359445920760988
0.019657436820095259417
0.019620619594023509802
0.019611671484976469365
0.01961646697454527688
0.019488798635197784881
0.019495485419211085881
0.019495448441440826892
0.019490735452292271696
0.019469885753865250749
0.019407964362101303574
0.019332692678408581327
0.019269327333534834457
0.019219929406488783785
0.019188735132101928521
0.019175059268191491091
0.01917561168810060987
0.0091318724398670343689
0.0091196831735990691037
0.0091270320032728127768
0.0091895407119232160736
0.0094533742221392779576
0.010386041521718432715
0.012050447205398856498
0.013443488931070186193
0.014419808146530098056
0.01497373407409641026
0.015191810515125202946
0.01522297715339638452
0.01518047760562952174
0.014934088002332300896
0.014116592785179590472
0.013194379500626639973
0.012543477981801427409
0.012134361756994260437
0.011903658357502028969
0.01179121896394838033
0.02180388790492411924
0.021793122186311041089
0.021826159820937336697
0.021998973938288996638
0.022601093692973493743
0.024471789839910180336
0.027135346535230694259
0.029419208283847381874
0.031125765131565358984
0.032192028612906868623
0.032684957143228970944
0.032806496349217686981
0.032782684191212579927
0.032587170503082768525
0.031798136898866791178
0.030000809678695939536
0.028446023076549989406
0.027331388150476264992
0.026622321733079403611
0.026228541817303444722
0.026037187168587459796
0.025954111860223352815
0.079336983220545387319
0.079444259567832353763
0.079755180518725293792
0.08047922396830595182
0.082276855114043354056
0.085877312293905813667
0.089976215319385960401
0.093986132339246700185
0.097217304807427407098
0.099348702228490293198
0.10033130529385139718
0.10056001035676588595
0.10049446210028196991
0.10019805723056429692
0.099154123137009733679
0.096522977668750592484
0.094130037872460839421
0.092548180978370017669
0.091821104080352294874
0.091682338240585484201
0.091728986137425319591
0.092059795563421961684
0.092794493753506693268
0.093343650564807228998
0.094022688367549081545
0.095141039011404457404
0.43124999429956034636
0.4407299672028773263
0.45074427687380047569
0.46192603492209249882
0.47439982437548955385
0.48789921011298797993
0.50149634631594408596
0.51349718716660419648
0.5223607681558191107
0.52724753175423577645
0.52888606286901596043
0.52878906084885135552
0.52783759825623954853
0.5243077568610338135
0.51787391744314892339
0.51338311259655555752
0.51121823733519544675
0.51078661220423560163
0.51099839359459753307
0.51236450465956440148
0.51707544973119912157
0.52345883717571806137
0.52922513063041132231
0.5348483197701420222
0.54109279043761771
0.54835906068806095082
0.55674258154370737106
0.56563730282911417468
1.9684218657627039484
1.9849297516185497869
2.0008807890959561249
2.0163015875417276135
2.0310175848067602011
2.0449560236550028414
2.0567808577945565496
2.0655120190206308628
2.0701628307545494323
2.0715731161702333196
2.0712937009814043066
2.0695712317487915399
2.0638962266843776661
2.0560579526758799851
2.0501412250979411667
2.0466086922020556571
2.0455265793104993044
2.0456704100682356895
2.0477601736682280453
2.0544036743109983512
2.0617761910927216995
2.0682211149968727781
2.0739286012870135067
2.0791569017233841876
2.0835353518897710146
2.0865690368440730218
2.0881276914910698039
2.0885060078205328615
2.08839898099477983
2.0877284573077790064
4.3424760435763252175
4.3349120595663261923
4.32545656877375162
4.3139333664990520134
4.3002900263107557421
4.2846282295986313216
4.267215234251670708
4.248369640822518889
4.2284763521153729826
4.2081947240717205716
4.1885168154846486033
4.1705231503467192766
4.1550203784878325663
4.1421835806650726397
4.131581236657857481
4.1223662747996625555
4.1135996855407253037
4.1045509569693239271
4.0948181433960826325
4.0843085903163531825
4.073058992401183076
4.0612092738928424751
4.0488304515044939436
4.0358916248240594982
4.0222215381847616911
4.0075435837136890171
3.9916681438995351705
3.9745871518385409438
3.9566602647832205264
3.9384717687458552504
3.9207848099323046043
3.9042345081669158624
5.9386530812831113124
5.9089411231392761081
5.8790431296598084643
5.8487725716874292559
5.8183830599915147275
5.7884035842427090657
5.7592993166736512478
5.7311381061488377853
5.7036855159952875027
5.6767694749569281853
5.6505047202723304167
5.6251996545920421866
5.6010065738024268356
5.5776718274843144485
5.5547360012172912747
5.5317660325824888901
5.5086626623510506207
5.4855842831174816965
5.4627584790371317425
5.4403277223977939414
5.418281603914442357
5.3965110168322878437
5.3748735494271810964
5.3533404392755272738
5.3319383034361944596
5.3107771782568677921
5.2899946191942159857
5.2697186831387972106
5.2500576313672970841
5.2310575882030798667
5.2126756514940444376
5.1948330127329063188
5.1773972552867260077
10.13063995142688789
10.027323609975976382
9.9273038633230079597
9.8298932989918785808
9.734389400096658207
9.6409244111755185713
6.7855942380120524149
6.7522692596682123423
6.7190254547332211033
6.6857384262866377256
6.6527934227807410394
6.620853131613203324
6.5903255189257965441
6.5610450408878167039
6.5325206939128062089
6.5044049439522648726
6.4768266050041223281
6.4502331103361196796
6.4248705486899080341
6.4004882314136395394
6.3765089509263361833
6.3524826754171348497
6.328415043102355142
6.3046171963656778559
6.2814417854731621205
6.259054515424654852
6.2374313217461887504
6.2164167205800220373
6.1958730672709982912
6.1756950091160041083
6.1558143123046553669
6.1362118410897581455
6.1168802185485686707
6.0979162063470990773
6.0794456271157883975
6.0614840022017064669
6.0439978175509274649
6.026932288720423081
6.0102663799031539327
5.9940343041425494519
9.9182856786710011932
9.8225575223723033957
9.7271306699058666112
9.6327916323020907896
9.5395103139204273646
9.4479082887009386837
9.3588328016340973647
6.500118332398188592
6.4716627665488388743
6.4429853750867076556
6.4154164063174432542
6.3904580223791809246
6.3688990774227312031
6.3503046768524464838
6.3334750654948619442
6.3174363954603780513
6.3021955793715891403
6.2884321742331570348
6.2763733648471013993
6.2653414288920279418
6.2542095649541176172
6.2422355469001331585
6.2296908140789897246
6.217453471835765022
6.2063363840983649666
6.1964505058683521099
6.1872906145421362467
6.1780650275907351698
6.1681428305754071317
6.15726967016503135
6.1455407438344389348
6.1332708130481599085
6.1208235456343142999
6.1085743738253155399
6.0967379123263478746
6.0853698124526172109
6.0744081712645829896
6.0637411988492981862
6.0532807971276003656
6.0430391402813512514
6.0330169212241715471
6.0230793007803464789
3.913235633078381942e-06
3.9089570038272964032e-06
3.9024333365411209792e-06
3.8992142579305218318e-06
3.893612285904570062e-06
3.8906085479959661669e-06
3.8838002095889837244e-06
3.879849354277655484e-06
3.8699796144189155608e-06
3.8645632010415664959e-06
3.8478989606031082884e-06
0.00025741090927575117301
0.00027026577042064091339
0.00027800377736193553849
0.00028084496713980458549
0.00028071115976968863881
0.0002764976486661972592
0.00025937748940638475584
0.00024177512702402108443
0.00023397697053868736473
0.0002328659777259352217
0.00023545461786604897272
0.00025081166341446754775
0.00028464975376202381746
0.00030727189326219274922
0.00031742557303588239421
0.00031953207624878265415
0.00031863343974815799614
0.00031330320662833880709
0.00030812193219646147498
0.00030737300856696186382
0.00031000660139904936139
0.00032627494938097773665
0.00037476356757338002154
0.0004167849168397966958
0.00043873961537137614502
0.00044560341397703606432
0.00044538120497325235734
0.00043830530576068510744
0.00040902774838173723603
0.00037451161208429558074
0.00035502700254192256536
0.00034761304338734328595
0.00034685837349929515014
0.00034966741439698678911
0.00036538103162233844575
0.00040006319556347994188
4.1759965459407579692e-06
4.1701265888143836295e-06
4.1666133350438744402e-06
4.1649182358099302617e-06
4.1640616632741574895e-06
4.1631083925951540989e-06
4.161829300096258194e-06
4.1599694611199085817e-06
4.1559118701806403202e-06
4.1499768063311678684e-06
4.1396950063525641574e-06
4.1317949273373121314e-06
4.1222337710814988652e-06
4.1174344926788265309e-06
4.1102419086691408117e-06
4.1063997023442563798e-06
4.0978674806766276635e-06
4.0931998377824841491e-06
4.0814949694028112567e-06
4.0743969821830630564e-06
4.0538718191335192895e-06
0.00023823297608642501639
0.00024094900708355486614
0.00024813471543698385931
0.00025280516525319783388
0.00025400633085485250107
0.00025322917129829580372
0.00024731168290680722536
0.00023719231973810749286
0.00023312466307324935578
0.00023316378795420577945
0.00023790582580192736199
0.00026021183222222781005
0.00029348468717417270507
0.00031357863802654502034
0.00032195486971588150801
0.00032331790852771919711
0.0003219875714299224017
0.00031568715081825544184
0.00031082560700102375125
0.0003103544488744871036
0.00031362069128178601428
0.00033246129490081073512
0.0003824369020904374466
0.00042158304419011543955
0.00044116167408022634311
0.00044663949085330215431
0.00044595582296930397301
0.00043733722009639704447
0.00040552288508103993695
0.00037228511310981489413
0.00035364368979420851688
0.00034647886019054872616
0.00034561705920288900498
0.00034776176674549823557
0.00035984851293964834453
0.00038519074340890842399
4.3611015845456402849e-06
4.3619165772080431529e-06
4.3645549250292314987e-06
4.3669504349684926583e-06
4.3689121658144829357e-06
4.3731794378898019277e-06
4.3772175844257353168e-06
4.38024818503797142e-06
4.3823850864377771909e-06
4.38281167611538981e-06
4.3809355086994775945e-06
4.3720861251667498659e-06
4.3559976677936652095e-06
4.3464733050053759665e-06
4.3359647981011857789e-06
4.3309190162202970266e-06
4.3204467931544301786e-06
4.3147168469825826503e-06
4.300258527486800156e-06
4.2906814623781791874e-06
4.2659681358067205655e-06
0.00021872409192944225042
0.0002308928544666264261
0.00024129331709120060913
0.00024605703667807452386
0.00024694620857343700833
0.00024609361693309495921
0.00024322648243799428985
0.00024250376583013986942
0.00024439198941403686427
0.00025721334153447838414
0.00030042554743216421309
0.00034164675489865614687
0.00036261745831002336997
0.00036884938526986270303
0.00036856772855263503349
0.00036227985893480004051
0.00034304306895469315357
0.00033012320204330210249
0.00032659821987948153095
0.00032786624129783344768
0.00033933057115774836743
0.00037899153134920776035
0.00041663693946629448564
0.00043529705012344772691
0.00044041168075500128831
0.00043966302455641567953
0.00043104614006630797771
0.0004035926637062753038
0.00038101792468831424199
0.00037083459097672166836
0.00036870439371132431071
0.00037013145626275755331
0.00038052441772750615449
0.00041214279184288189891
4.5672557067910537348e-06
4.567870616459616228e-06
4.5692783981337924698e-06
4.5700537092524134736e-06
4.5724207584948372443e-06
4.5797241501837037672e-06
4.5879684404387061303e-06
4.5936614640919773271e-06
4.5975654162269867731e-06