/*--------------------------------*- C++ -*----------------------------------*\
  =========                 |
  \\      /  F ield         | OpenFOAM: The Open Source CFD Toolbox
   \\    /   O peration     | Website:  https://openfoam.org
    \\  /    A nd           | Version:  12
     \\/     M anipulation  |
\*---------------------------------------------------------------------------*/
FoamFile
{
    format      ascii;
    class       volScalarField;
    location    "0.0095";
    object      k_0;
}
// * * * * * * * * * * * * * * * * * * * * * * * * * * * * * * * * * * * * * //

dimensions      [0 2 -2 0 0 0 0];

internalField   nonuniform List<scalar> 
106891
(
0.024202589860850203668
0.024186024698003460998
0.024155734630183098299
0.02413936482363832764
0.024109211801533299985
0.024093194849676452529
0.024062553479763479358
0.02404661655735213302
0.024015745235537996893
0.02400032931355053703
0.023961645462705471327
0.018806278480942694581
0.018840483557212565902
0.018985568397227162163
0.019429865260884058437
0.019994082661751077373
0.020497176432557735054
0.020925689618567742956
0.021274527369072940286
0.021554036771953027918
0.021771796903053950573
0.021931203462621770561
0.022028891578488054431
0.022071251270703577674
0.022077160672566025629
0.022066640234642401208
0.022003137015499007328
0.021763810818757216292
0.021447262971972219647
0.021247562331379692135
0.021162393718065868747
0.021153083371618707637
0.021191645576416437424
0.02141544499121347464
0.022167070667645824567
0.02301022940299432204
0.02358490775246234461
0.023927409000328074551
0.024101754187719683087
0.024181427797272021102
0.024226875907316425263
0.024275239491765635697
0.02433639277479274915
0.024408698216320624114
0.024476060167213289226
0.024525384411922358102
0.024549188030482942124
0.02455202617257543421
0.024538026149390376046
0.025649412247719358821
0.025621061025338863482
0.025606845094307197075
0.025578516561884249991
0.025564055214949806677
0.025534521298689362434
0.025518747459480475848
0.025487359899798493756
0.025470105432212966634
0.025438085858717950083
0.025420059854770658825
0.025387460050410558254
0.025369717548396637091
0.025337384310790737885
0.025320213770511544593
0.025287317613903070868
0.025270564541591423319
0.025237635242440402406
0.025221399452755203369
0.025180327350238125572
0.019578486176155273507
0.019743520697164312905
0.020219139382994289617
0.020756124573571354403
0.02123896295008020213
0.021669924244135010949
0.022062527683958367553
0.022426239419440253953
0.022758984392565934085
0.023037325985452210275
0.023237567807489620947
0.023348791325602320096
0.023387658767927810288
0.02338717052376458605
0.023357566470706508238
0.023211413481418551041
0.022866124940291512879
0.022608038189510841487
0.022475647568325193837
0.022442330314981835671
0.022458324985200124602
0.022587023073298202053
0.02308217225840143369
0.023722956383515299283
0.024176237204038969475
0.024478658734412902381
0.0246797746090140456
0.024830438914276307255
0.024967076906622212573
0.025111013358653462568
0.025265943028569506912
0.025422979849810053987
0.025564223953619225754
0.025674567908866997856
0.025740424676420726319
0.025763360602156344659
0.02696804468196904378
0.026937414546468602811
0.026921434758650934771
0.026890351823416258625
0.026874027576202434708
0.02684147186277456229
0.026823995240076718705
0.026789780639877063678
0.026770777686427184999
0.026736189157757824647
0.026716718240475161028
0.026681931086537952896
0.026662830472257183223
0.026628221499385349574
0.026610090880700511956
0.026575195446860995496
0.026557639002583479509
0.026522891074336096134
0.026505825411941755232
0.026462364968523423292
0.021106923692386501956
0.021607525891112300959
0.022007406414050703636
0.022323978795504705042
0.022599405523910164745
0.022880116229387570392
0.023208576743357189898
0.023592788651803753286
0.024005472629773403487
0.024390060024065275679
0.024689865121624382516
0.024870606811183353091
0.024941224597152415743
0.024946054479398495352
0.024914069069972170911
0.024740492389573924548
0.024248187029852714958
0.023807136818473337292
0.023543320176977616115
0.023431423759625206321
0.023415148693374618349
0.023447650820163919855
0.023635600095668226478
0.024168367061079328723
0.024690109026280972204
0.025103306680808647883
0.025435030398782129679
0.025713401739983522687
0.025959632076347119445
0.026187141639189840531
0.026397318633587699144
0.026586504531593925515
0.026739283029026079258
0.026848162537018830515
0.02690632431670485214
0.026921222247928672244
0.02832431870219354747
0.028306215214877319952
0.028271926296841849019
0.028253307645205325005
0.028217753286868294677
0.028198521599306081153
0.028161547672523077473
0.028140951445602781222
0.028103786655403601574
0.028082907228001791761
0.028045647879567908028
0.028025046725548671128
0.027987941129421038677
0.027968650508615220535
0.027931681416698713599
0.027913303336005040184
0.027876735656300357519
0.027858748045063459059
0.02781265626574258229
0.022487864561908953165
0.02277350225276635054
0.022956990608176117141
0.023119662639568556994
0.023347732360131615015
0.023690275796454399182
0.024162794252244053361
0.024730232074730490455
0.025321487018241640998
0.025846749152194276739
0.026234945830513285714
0.026456183020177076459
0.026535421569946402581
0.026538255660984826079
0.026484794344651882425
0.026205501989755776437
0.025615037728957696511
0.025199143131181871158
0.024988388288666504161
0.024930152999740384789
0.024938075054672402542
0.025032204719571040513
0.025429865223883758168
0.0260888173271020124
0.026601200136202068913
0.02697024239480581842
0.027235357429600898227
0.02743940071125480773
0.027616179793305360018
0.027785217369082425287
0.027949257310809612342
0.028095240321761222324
0.028209684293562877627
0.02827742473139299717
0.029816940999298942316
0.029780370057714337234
0.029759983755552225221
0.029722539253847823915
0.029701952583339321506
0.029663260610998273131
0.029642263157659675538
0.029602868825072254505
0.029581242783223861414
0.029541713648957097088
0.029519605541371014834
0.029479764539962687725
0.029457758074309510488
0.029418016760138523263
0.029397282546356793415
0.029357797914756129931
0.029338221546221201347
0.029299271757413765382
0.02928014608369555738
0.029231030566314090968
0.023207345935375971874
0.023535732843656658603
0.023981866604306879831
0.024381342470002977801
0.024751131181212249199
0.025118317440007167235
0.025512700126650991045
0.025940835393109460544
0.026376812554526684468
0.026777210092199056624
0.027091725145158038895
0.027288210351497879658
0.027372186229162976528
0.027385706364868787205
0.027361799665250263747
0.02721102245382587409
0.026824060633177240071
0.026550582188418398594
0.026435983990358485896
0.026421575708994497755
0.02646518726130913518
0.026713122568998302203
0.027483874614350152499
0.028273852954451249297
0.028811976547617391964
0.029131275957277099481
0.02928445268697871598
0.02933612716045429572
0.029342985640424913002
0.02933907314512254616
0.029336558027935506765
0.029344229173600144128
0.029387404077589853596
0.031310385737219795232
0.031287831819542644141
0.031246779296612368915
0.031224277712839948462
0.031182840006125183557
0.031160628727195795878
0.031118771936116070009
0.031096235238716352089
0.031054478742149792952
0.031031575740298241589
0.030989262255064417562
0.030965885216445561412
0.030923103307094187281
0.030900645471728167835
0.030858118924899872321
0.030836870921245644606
0.030794695373434603086
0.030773868780180364119
0.030721081661677480945
0.025524626820539308286
0.02610604074153666937
0.026546342182566715767
0.026881559137791895264
0.027146092995126804015
0.027376266314239890848
0.027597462852009719408
0.027821915686461990563
0.028035266227341076178
0.028207228284589883766
0.028309601357363683993
0.028343279902871918591
0.028340564759063109623
0.028289739993252023542
0.0280632795054733368
0.027756338230132668321
0.027585383069176454274
0.027532743635903279833
0.02753941216242229359
0.027641494856798273783
0.028093781223144688453
0.028880152694791896839
0.029485167525680710393
0.029908435435356862248
0.03019638808530722765
0.030401987995554224237
0.030568662573340277949
0.030721909982151324181
0.030868989184441048695
0.031005377548523956055
0.031118144632698314239
0.031199986892695440871
0.03291658924518139212
0.032891757269368181171
0.032847504636796809319
0.032823465414860343581
0.032779502841350498243
0.032756378813404332662
0.032712619365994864695
0.032689711806978383191
0.032645987907986423471
0.032622472534001162314
0.032577721069478447757
0.032553289800711558699
0.032507630983818362747
0.032483179060833193563
0.032437039600665365513
0.032413507312166731089
0.032367510605566293669
0.032344367632128140366
0.032289545674844176426
0.02709113140354596147
0.027370026189302704145
0.027663389642387820055
0.028009991022240235403
0.028423877078071518171
0.028887361054586578601
0.029353475828070168391
0.029747523698522522484
0.030017121125688817768
0.030151910153177630819
0.030186718916859398704
0.03017552692974176734
0.030072075819800980767
0.029663243342770512223
0.029152003141567628397
0.028850176516422472439
0.028730284746661623185
0.028716737607442650859
0.028769137487667597458
0.029054077896840384276
0.02977012643319735738
0.030388670392012793325
0.030839408295158195206
0.031177060900526180898
0.031468094748620133172
0.031761475862657775893
0.032074974332944906907
0.03241222322270975037
0.032744091650051106168
0.033026048017705228466
0.034593816348956155093
0.034546736537616015705
0.034520866199316838085
0.03447442328634601344
0.034450468140806614348
0.034404932913944946682
0.034381680295949443305
0.034336233734998042322
0.034312236743955636109
0.034265359141748948091
0.03423999312686381441
0.034191203898587513299
0.034164720329224365636
0.034114747989939776807
0.034088484317794362499
0.034038174598639808766
0.034012264039372283597
0.033954291733784405793
0.028122223127149514887
0.028313733311160500794
0.028539996154469789158
0.028864482029261864099
0.029327195948665965575
0.029925348758533108773
0.030600770461205226147
0.031233564257819472487
0.031709247712523480622
0.031969993643243620196
0.032046025789004922713
0.032036690141580156932
0.031909579654252541447
0.031427411364799540117
0.030919293103044035581
0.030659180062233837294
0.030582939609773630851
0.03058829270776625836
0.0306856291573590588
0.031093568179559081394
0.031669809684834966668
0.03207918130219325481
0.032351754997342538345
0.032534360221534296131
0.032690867887762521671
0.032892473339167359325
0.033179476275153871323
0.033552904755339979515
0.036504857671524192086
0.036456736742693333919
0.036429419481463172492
0.036381637915556937213
0.036356685181160863785
0.036310126926523030033
0.036286363711531190168
0.036240532041851201972
0.036215966165955057465
0.036168654803038220724
0.036142154208472526689
0.036091841876010923029
0.036063611165820033677
0.036010610104940832255
0.035981491288697785291
0.035928316355337698573
0.035900111781054101778
0.035843799164065659468
0.029986418063865986211
0.029987529982201367729
0.029981821177236002429
0.029982423502402846122
0.030021576726317153461
0.030225030000362033272
0.030939484188661013631
0.031822094834217704018
0.032402735617107346344
0.032685236638971409961
0.032753087259318663937
0.03273295804047877261
0.03257013203156920722
0.032246815354133262499
0.032089456506985226947
0.032061398478349878438
0.032099001658284866123
0.032339250407943220811
0.033012591579580918832
0.033565470531555050004
0.033867695308347919858
0.033980127643549795646
0.033991464953797290161
0.033966161994138502345
0.033899873344611058945
0.033879696127300830411
0.03389077560060855393
0.037997820545558391725
0.037947628262653090858
0.037908521075366616304
0.037860121389802540992
0.037821156437936577499
0.037772700018534617616
0.037734697340597547766
0.037685379459663048696
0.03764583790587155282
0.03759420393200011562
0.037551160864006359608
0.03749604027486237029
0.037448935460894755556
0.037391858486661246064
0.037343530565742064087
0.037286793613732972796
0.037240530631241809678
0.02997507131596235247
0.029612001014693759005
0.029168303709991311862
0.028891273121554292974
0.028770182881623258819
0.028752871290453622249
0.028796790209233306956
0.029073579895569686554
0.030155771922867273538
0.031781749739902068197
0.032910414451320348095
0.033525764586040320003
0.033766197089912110274
0.033812780057979816006
0.03380967542175750129
0.03381036903911018715
0.033848536816039040409
0.034057473977088206785
0.034513505075824894852
0.034805907612734457435
0.034911835176675010128
0.034912436508136315827
0.034830015986531646932
0.034434865593307335818
0.033581245884566832127
0.032942616405580001093
0.032587065176387763898
0.03804162976559805065
0.038005348631966973105
0.037934103027610015235
0.037897675391252154398
0.037825937761809216853
0.037789169847174439165
0.037717022171021595545
0.037679487297715828775
0.037604664706774530714
0.037564951917471001153
0.037485320127471098706
0.0374419524566723394
0.0373588189942613072
0.037314884339608923869
0.037210576167483230825
0.037220039603181195864
0.025090639636861401807
0.024671255307676859259
0.024361870524708967994
0.024156821122015052772
0.024042720508996841267
0.024002012325641631368
0.024001925805726780777
0.024038440166312884799
0.02422096168611239525
0.024905991920034863119
0.02662444822206719644
0.028259728904955240536
0.029480583089652137585
0.030297939191759239858
0.030795552082238383113
0.031075724962122880379
0.031216615244608888341
0.03126491767683712425
0.031265233593955762958
0.031223072078231627058
0.031026720744897876708
0.030355058260152282396
0.029390209495194986183
0.028595537094179709903
0.027990504528062440381
0.027567253458818857803
0.027309669343649336376
0.027188413894799149523
0.030740125355478643138
0.030675817107559854441
0.030641939732663166229
0.030577297510488422178
0.030543041175401405146
0.030478040085429199818
0.030443510950613719701
0.03037710626316204171
0.030341698739559715831
0.030272580015789973817
0.030235402564875644288
0.030164029084165707578
0.03012673664788307476
0.030038261216388809777
0.030061405429187715993
0.02413291342780118226
0.023879823468241634377
0.02367737997886356846
0.023533010347434744208
0.023448166379402064774
0.023417926947138144322
0.023418588804999224129
0.023456347564541228656
0.023641238156623410605
0.024281519041990301533
0.025251450065768853842
0.026080310601582775559
0.02674442856970593585
0.027256362498102648662
0.027636330500038223251
0.027897744309171260135
0.028049855863696748076
0.028112710071231949982
0.028122579081406896828
0.028111834488683803968
0.028051397109425391108
0.027827416824532141132
0.027387238899327672609
0.027009273397925019633
0.026728101819589473315
0.026551011517342636842
0.02646675223021036083
0.028696947713427446019
0.028670005937627116716
0.02861820072625619743
0.028590749726975558248
0.028538145428664285497
0.028510545651266944872
0.028456909288621420884
0.028428702207043261146
0.028373208555905308353
0.028343388585838274335
0.028285760775293346952
0.028255588252755391154
0.028185868452912325038
0.028180139053623758094
0.022647476633407138957
0.022537472472022496844
0.022485395381864989317
0.022471416609979661533
0.022476235813534667374
0.022518885819339695686
0.022687425523539580391
0.0230847769984644062
0.023527005132308247831
0.023984226908995064098
0.024453356201989805835
0.024928036400683278861
0.025394777320408443155
0.025829335511994719332
0.026195938227487881172
0.026460606741193198194
0.026611742862961761807
0.02666526994416227106
0.026668751362574315278
0.026640288884062456737
0.026497722265639834377
0.026118238615493432481
0.025779584845907154572
0.02556157392437250625
0.025454126525443349083
0.025428420699488821222
0.027637107066028541308
0.027588258348799136327
0.027562226161895814897
0.027512689308387138637
0.027486508863537279651
0.027435937035293792713
0.027409330608502324028
0.027357673964005662509
0.027330188994421588528
0.027276828748728991492
0.027249096485060398526
0.027187462448688550637
0.027177005470177994367
0.021453340116989280673
0.021454688606494295294
0.021487494867640684337
0.021647756592084878291
0.022093014539424797593
0.022550740779624267596
0.022929356462179320553
0.023245066054300399239
0.023511124998908439904
0.023757116539700164765
0.024011249800851938718
0.024286231931010482388
0.024570313395817788144
0.024830465636108727673
0.025029016920085730979
0.025146325548901317382
0.02518894479485524196
0.025192006438833212251
0.025169895386592852637
0.025062037875651057423
0.024802905946550386773
0.024588690471627615286
0.024456452747691440064
0.024400709950008692833
0.024393623419915553413
0.026540294259615751504
0.026514785880905764048
0.026466349353607709211
0.02644052254236448074
0.026391160968915881868
0.026365153445081605799
0.026315291338722002906
0.026288994149505334752
0.026237851821797188862
0.026211510194306262417
0.026152556242139711473
0.026142956334098001181
0.020545786921807595443
0.020560592481209456761
0.020649258549975690186
0.020992538018138391653
0.021587280225421959234
0.022092146956675492303
0.022492123012183597164
0.022787406017257379187
0.023011984332951616883
0.023209102679325507856
0.023413540778338605419
0.023632558924899460528
0.023844789077254895104
0.024016281201690272556
0.024122465335687976601
0.024164510090867463016
0.024168468083616754388
0.024150278469879726123
0.024059014575963294513
0.023803850930106913025
0.023570548804975364338
0.023428341259574925887
0.023369678807357414929
0.023363326354960821385
0.019799216454249004421
0.019927898066784278941
0.020310679718823689693
0.02076043557729582642
0.021172344492820811129
0.021528076114685875536
0.02182208304046519623
0.022058307611826932088
0.022252275739696361634
0.022418822965602103192
0.022562942324123282795
0.022676030532386339672
0.022748180398224137483
0.022778004247775270052
0.022781653196699724884
0.02276788152701928955
0.022695132053849695342
0.022468605088279330895
0.022229928660624752312
0.02207180022050038784
0.021990998924466657188
0.021970557836571608795
0.02197960351920765637
0.019667724281295911187
0.020303514003805873955
0.020846667851686116746
0.021262627761040001073
0.021537165898919963247
0.021683565417331792519
0.02174127029227839597
0.021756837724105214382
0.021765840191370181694
0.021778787068348331307
0.021793801908491380881
0.021800266315803923378
0.021799980366043410912
0.021786291172654240894
0.021725462372468865718
0.02155259887135319366
0.021378780708492861606
0.021256869604056632256
0.021188341810048600539
0.021166390556310435422
0.021168805724183364925
0.021186509368493193495
0.021373483616988760841
0.021438796100834059399
0.021444991390243830359
0.021435258324025936727
0.021395317596784018538
0.021305566538205131244
0.021211105182415184583
0.021101202694729193771
0.020967504361463475127
0.020817588567210790207
0.020667686680865146598
0.020533450840650904756
0.020428997921736431059
0.020363160837812342013
0.020335426095757735271
0.020334399524507166396
0.020538908330076342812
0.020533501225595291589
0.020505511926022356589
0.020408831803447911174
0.020252765834594267658
0.020097761075236284661
0.019953035017467986301
0.019825850431442974126
0.019725702522081497298
0.01965696191677743232
0.019620315289712406126
0.019611472728984318675
0.019616333824671483566
0.01948853159081154543
0.019495188416773757967
0.019495151299716743237
0.019490398925210549591
0.019469423253342214852
0.019407312961929708978
0.019332080775961768548
0.019268789933058947522
0.01921949996605320371
0.019188429776533705295
0.019174860354638362248
0.019175464293148918038
0.00913123039139873173
0.0091191520741423798962
0.0091266033711045677079
0.0091895400129567185454
0.0094547569674006213397
0.010391560092358986117
0.01205605159962117208
0.013447680064701808197
0.014422289756248807963
0.014974698380886991914
0.015191766201755026525
0.015222559523485848509
0.01517972376002268281
0.014931916195280539941
0.014112111690443537512
0.013190923990523470768
0.01254108244920696183
0.012132828874376461875
0.011902737351229944474
0.011790662745528927152
0.021802391085913152419
0.021791731368366852595
0.021825022261673106272
0.021998821921838791066
0.02260387217043006991
0.024480955583069875792
0.027144085932864246008
0.029426073823487497449
0.031130226931626238385
0.032194139933700224865
0.032685311448706233506
0.032806045923023510746
0.03278200074501168293
0.032585377630120322678
0.031792308921962920965
0.029993409234144365744
0.028440475116699032165
0.027327609089786899371
0.026620034259671594007
0.026227334206338569211
0.026036634107657032067
0.025953884535390915611
0.079331388068470731767
0.079438808361063317776
0.079750175434031581045
0.080476062611215162801
0.0822805267525475309
0.085885344478928940526
0.089985734216337071034
0.093994427710395234143
0.097222039049213032635
0.099349056332586754836
0.10032817791664742912
0.10055566471583531063
0.1004902877509861181
0.10019348333013743113
0.099145230943138137891
0.096510432019352263011
0.094120880793630665173
0.092542592138336002283
0.091818726507951392568
0.091681757705701319439
0.091729433729108189599
0.092062454721936526347
0.092797434448453272604
0.0933462285282521953
0.094026179843580984241
0.095146217932968582542
0.431254339684132737
0.44073422372584164508
0.45074989657635450291
0.46193424286257972478
0.47441159765847307206
0.48791431668602514016
0.50151130212849748258
0.51350566933955499316
0.52235685061170600285
0.52722979996985508411
0.5288590225882151552
0.52875983365474010789
0.52780552852450046686
0.52426376197882795793
0.51783450233337291468
0.51335451863087877555
0.51119910164296056276
0.51077251077254748335
0.51098727526255161013
0.51236242852828839389
0.51709081119650857072
0.52347401684734229388
0.5292399753113491423
0.5348647566641165918
0.54111239206638295229
0.54838187050747611018
0.55676722521270916033
0.56566058806350205668
1.9684289883039418623
1.9849355401153661038
2.0008822229846234819
2.0162979963420903928
2.031011374115482937
2.0449487111456106092
2.056770223549482246
2.0654939433660861603
2.0701346869910839388
2.071538256417662538
2.0712563280044560265
2.0695277157290501435
2.0638388762917223573
2.0560073304631520941
2.0501021836395389997
2.046582432219814951
2.0455104727217050531
2.0456603098772272453
2.0477663311652882783
2.0544287143832233866
2.0617999295071820498
2.0682441097708235134
2.0739510564484784361
2.0791789583129220986
2.0835545077881669762
2.0865819779026071323
2.0881325822189524821
2.088503782824793209
2.0883923090866658434
2.0877175110509704758
4.342487794168339299
4.3349180069337114318
4.3254476317178163214
4.3139065477550131433
4.3002508451118295341
4.284587296232854392
4.2671796090067672935
4.2483387475431531044
4.2284454124249517548
4.2081625828797735167
4.1884883143895494939
4.1705063437118674585
4.1550191074779929679
4.142194962294172278
4.131598175867817524
4.1223829406791381302
4.1136141002934749622
4.1045640182834643994
4.0948319344648682616
4.0843244013753965405
4.073076360773081106
4.0612265298799181679
4.0488450679186049896
4.0359017261039626945
4.0222251890071047953
4.0075390946571705086
3.991655194067051049
3.9745658653421833684
3.9566329921077150189
3.9384427797642067581
3.9207580067927110257
3.9042124109556373135
5.9386713496428917836
5.9089533986860134362
5.8790367722619265578
5.8487479671349724697
5.8183538224234077063
5.7883865127021048025
5.7593016750830479111
5.7311528019771627029
5.7036996790680545288
5.6767773116351687435
5.6505121657538062152
5.6252167747601786729
5.601035908912337824
5.5777050114207717968
5.5547622827031837289
5.5317790952114380687
5.5086660450830349234
5.4855857861711108114
5.4627651384483328911
5.4403418256832010158
5.4183006313293287093
5.3965298513869237595
5.3748881751114803151
5.3533484250005072269
5.3319388915089325209
5.3107716892563345823
5.2899845527473230433
5.2697067342944796664
5.250047012501875443
5.2310493301578837588
5.2126690127682531184
5.1948265600283427545
5.1773906778466258771
10.13063735555270739
10.027307724791659993
9.9272690188255712229
9.8298263021884686452
9.7342988551515663431
9.6408394892842821378
6.7856352593336959345
6.7522981743417576084
6.7190287823479950546
6.6857207939617708803
6.6527752044209513826
6.6208552029936456051
6.5903535585567212252
6.5610848596688340351
6.5325528091768614303
6.5044232927006424561
6.476842722209223524
6.4502615428644602957
6.4249141729111638455
6.4005340597317346152
6.3765396101661968586
6.3524909335095252061
6.3284070783288974837
6.304607076932737364
6.2814393461299289356
6.2590619776936220475
6.2374443485284469801
6.2164286834678526006
6.1958788591710032279
6.1756919581788265461
6.1558018611615876736
6.1361911856538684518
6.116854162786530047
6.0978899553510492737
6.0794225336717842012
6.0614640160984327721
6.0439786440311262794
6.0269119770441514916
6.0102452489795465951
5.9940149974583327719
9.9177838992123668049
9.8219833044620852291
9.7265201929043900719
9.6321526953351241929
9.5388663419659955878
9.4473144238458459654
9.358328367234303613
6.5001331243338551502
6.4716206075856117508
6.4429168099775635525
6.4153720563730622928
6.390476941383630205
6.3689821394891286133
6.3504159693566881728
6.3335708455185057986
6.3174995900841635077
6.3022421830298505085
6.288484176494845812
6.2764276144527819667
6.2653687513829590117
6.2541790760851370123
6.2421431795919879448
6.2295651578763857614
6.2173327713314678888
6.2062416399493152142
6.1963765648046704726
6.1872161102612466266
6.1779670228728225112
6.1680085560098101283
6.1570998621962633734
6.1453458827080478244
6.1330661214281949611
6.120625673194216354
6.1083976349083295432
6.0965908107983821651
6.0852525981839677982
6.0743178615978408175
6.0636762850541927605
6.0532443170024352597
6.0430361221532251648
6.0330498612964342797
6.023143854007010134
3.9131410274119431705e-06
3.9088680347609191807e-06
3.9023487152065444288e-06
3.8991334093192433626e-06
3.8935335041526841041e-06
3.8905274349943637935e-06
3.8837042447143743708e-06
3.8797373451183895192e-06
3.8698327876918702978e-06
3.8643973717164726653e-06
3.8476937098321450397e-06
0.00025746690693470390948
0.00027030476846888777318
0.00027802117606348501246
0.00028084542913771174712
0.00028070365290583111076
0.0002764562973427466268
0.00025928128854799944525
0.00024171873869593575178
0.00023395754196198797928
0.00023286433589352566577
0.00023547691926600612363
0.00025092975373336906314
0.00028477040239515034881
0.00030733273388888911713
0.00031744071929734238822
0.00031952544205786093936
0.00031861652952757388898
0.00031326762791300283729
0.00030810737440753021687
0.00030737194003787606748
0.00031002998338120212095
0.00032640237173728591522
0.00037498676277501410839
0.00041691441944519781271
0.00043879190667736459649
0.00044560803291868281454
0.00044536976828570896177
0.00043823761794007585731
0.00040885265674366121167
0.0003743926490552536377
0.00035496825632213560228
0.00034759560191557388334
0.00034685664510787265298
0.00034969049728088708994
0.00036550270218876001679
0.0004001890754895301135
4.1758816034209071685e-06
4.1700042411715753345e-06
4.1664846246390532865e-06
4.1647804318618248721e-06
4.1639174191584813866e-06
4.1629684373962212159e-06
4.1617047549132764193e-06
4.1598606406305856683e-06
4.155806797669370403e-06
4.149863341883438179e-06
4.1395776172883881947e-06
4.1316802079826036006e-06
4.1221302586555858818e-06
4.1173405861815793029e-06
4.1101507239298407115e-06
4.1062998989396028724e-06
4.0977458677316876059e-06
4.0930551778637518619e-06
4.081308393018935054e-06
4.0741897851101714544e-06
4.0536195610842600315e-06
0.00023823348817830487627
0.00024096682451150777129
0.00024815957672171136926
0.00025281335270468528915
0.00025400381377464536711
0.00025321697058102040322
0.00024726368762664790351
0.00023715897269758283417
0.00023311472718831521074
0.00023316430264208959041
0.00023794574934785496598
0.00026035465559183734946
0.00029359271947659615646
0.00031363070018928227746
0.00032196492402483304447
0.00032330975503989511227
0.00032196684033663504863
0.00031564957750203294275
0.00031081171896681390266
0.00031035307180820096134
0.00031364861727960495659
0.00033260771924681071902
0.0003826497508198532186
0.00042170230935169680147
0.00044120698897803664823
0.00044664215239784100728
0.00044594136457592087634
0.00043725895755351385039
0.00040534696637240029242
0.00037217087293499003572
0.00035358697285407152469
0.00034646107963535874774
0.000345614426114151615
0.00034777834170759286143
0.00035994051723824073592
0.00038527781561330584756
4.3610037735578307752e-06
4.3618114521006613285e-06
4.3644409175855269518e-06
4.3668227159815830503e-06
4.3687954079677456901e-06
4.3730906438896308117e-06
4.3771483680969658958e-06
4.3801929501669316155e-06
4.3823314834618848628e-06
4.3827522584414227755e-06
4.3808489851802017868e-06
4.3719292660263627204e-06
4.3558560442748379306e-06
4.3463491685283959392e-06
4.335847993885280703e-06
4.3307866561592540358e-06
4.3202893000346119872e-06
4.3145289862090890806e-06
4.3000240066170621918e-06
4.2904295420235833539e-06
4.265673256474895857e-06
0.00021875275693902028842
0.00023094579846847865115
0.00024132159988267732112
0.00024606470396011187679
0.00024694341167935836539
0.0002460819929790850698
0.00024321332856024383516
0.00024250077803974269845
0.0002444079707292890315
0.00025731445835443044314
0.00030063966176824003917
0.00034177244566762515245
0.00036266551690481037534
0.0003688511174974110074
0.00036855394163986252617
0.00036221844207858823472
0.00034295506171010928416
0.00033008620225884606177
0.00032659149072248081598
0.00032787872282815446216
0.00033942304113571429352
0.00037918889963571295997
0.00041675106723329459653
0.00043533935831608662741
0.00044041303872911741982
0.0004396474521643977079
0.00043096763729731613849
0.00040345806715185486254
0.00038094446967044774677
0.00037080664407329421003
0.00036869913903890967318
0.00037014303675848186145
0.00038060667878611398112
0.00041228680490603731874
4.5671184138879442714e-06
4.5677324226200844361e-06
4.5691457298643507282e-06
4.5699408122998143975e-06
4.5723516175170761134e-06
4.5797083975888711028e-06
4.5879512741702078966e-06
4.5936322423811116883e-06
4.5975222113599693329e-06