/*--------------------------------*- C++ -*----------------------------------*\
  =========                 |
  \\      /  F ield         | OpenFOAM: The Open Source CFD Toolbox
   \\    /   O peration     | Website:  https://openfoam.org
    \\  /    A nd           | Version:  12
     \\/     M anipulation  |
\*---------------------------------------------------------------------------*/
FoamFile
{
    format      ascii;
    class       volScalarField;
    location    "0.0095";
    object      nut;
}
// * * * * * * * * * * * * * * * * * * * * * * * * * * * * * * * * * * * * * //

dimensions      [0 2 -1 0 0 0 0];

internalField   nonuniform List<scalar> 
106891
(
8.9427053847079823198e-06
8.9334383655762644987e-06
8.9216429100236206413e-06
8.9124250314964420478e-06
8.9006701781688596148e-06
8.8915330590092971172e-06
8.8797055538136640887e-06
8.8705999935288557245e-06
8.8587483208953658509e-06
8.8497560422304750755e-06
8.8364826400749274093e-06
9.968557561409722802e-06
9.9706430341107299956e-06
1.0001805981782128298e-05
1.0110785075815942604e-05
1.0249477078354255377e-05
1.037049758811605643e-05
1.0471144937321710163e-05
1.0550806279538989371e-05
1.0612580849191489721e-05
1.0658712076725599218e-05
1.0690298419996607359e-05
1.0706705880608029539e-05
1.0709602946753350486e-05
1.0703619933104288909e-05
1.0693659246338258764e-05
1.0670938312495238816e-05
1.0605596630353872153e-05
1.0520795041487491429e-05
1.0464301578246004969e-05
1.043595090593757633e-05
1.0426364669241999306e-05
1.0428538415994779518e-05
1.047584566202344034e-05
1.065016361204132064e-05
1.0843570033791812183e-05
1.0970790733329718807e-05
1.1042696151940491463e-05
1.1075291172045975495e-05
1.108594505208777927e-05
1.1088670776096911687e-05
1.1092020169063989589e-05
1.1098259946244860578e-05
1.1107012262272342621e-05
1.1114613433203417698e-05
1.1118100841675991893e-05
1.1115795114242478647e-05
1.1108735072009126994e-05
1.1097890829380311606e-05
9.5047343553016326996e-06
9.4928818377253781181e-06
9.4836572615991947179e-06
9.4718290270807349894e-06
9.4625779221703671242e-06
9.4505479694642861036e-06
9.4410726509920253065e-06
9.4287180501325573478e-06
9.4189851884159855031e-06
9.40652995733896458e-06
9.3966688751570517961e-06
9.3841206901977533469e-06
9.374325370614410271e-06
9.3618418391690319161e-06
9.3521681727807460139e-06
9.3395985714962167996e-06
9.3300194274655994946e-06
9.3174634226214501009e-06
9.3079984683089319968e-06
9.2939609918518880651e-06
1.0428357785435061998e-05
1.0464701399071852576e-05
1.058233576968190635e-05
1.0714576686013302021e-05
1.0831016896677801297e-05
1.093280243650403681e-05
1.1023770842561801507e-05
1.1106583596326095713e-05
1.1180961627642952222e-05
1.1241395831337516663e-05
1.1282402259685855715e-05
1.1301603971245677285e-05
1.1303204771941885486e-05
1.1295248925505262138e-05
1.1280305876185844059e-05
1.1237348876326014321e-05
1.1145773149574063855e-05
1.1074859757021987355e-05
1.1034599215960080924e-05
1.1018693708517480909e-05
1.1014921721490796835e-05
1.1038560136055360265e-05
1.1150705017893796484e-05
1.1296738498823503515e-05
1.1396415860660576638e-05
1.1459641999912617791e-05
1.1498710920836345434e-05
1.1525782131576535854e-05
1.1549432141371766499e-05
1.1574626223889321113e-05
1.1602209840687438994e-05
1.1630133186709012039e-05
1.1654316705495484935e-05
1.1671366202986616117e-05
1.1678255608192502182e-05
1.1675383804397601676e-05
9.9994326179760008902e-06
9.9868120419566184587e-06
9.9769161877248591292e-06
9.9642311103236087442e-06
9.9542906682973146608e-06
9.9413540119815319886e-06
9.9312199806760618283e-06
9.917997205137584068e-06
9.9075986451817019861e-06
9.8943247023860203402e-06
9.8838555504600873812e-06
9.8705603395106772326e-06
9.8601737336274518955e-06
9.8469266872046097452e-06
9.8367351332265792524e-06
9.8234534872492923756e-06
9.8133863092551120572e-06
9.800153064226445565e-06
9.7901969105880999508e-06
9.7753780068418843449e-06
1.1108822743231164894e-05
1.1232092348962251644e-05
1.1327785550479640541e-05
1.1401111988095017469e-05
1.1463274896276438939e-05
1.1526203818968285659e-05
1.1600523386468900564e-05
1.1687991765837323657e-05
1.1781601647435291643e-05
1.1867435946099699835e-05
1.1931981786162645636e-05
1.1967383038300814075e-05
1.1976121558633044526e-05
1.1968984120686224675e-05
1.1953051726310947033e-05
1.1903311275718363936e-05
1.1776333313429977902e-05
1.1660455632711175204e-05
1.1587451097916078385e-05
1.1551730651259689491e-05
1.1539646625782252353e-05
1.1539565043600402314e-05
1.1577395684120845676e-05
1.1698760841723996598e-05
1.1816305320237366244e-05
1.1906603125034379232e-05
1.1976767859308782286e-05
1.203381765707734838e-05
1.2082932713236591916e-05
1.2127357277833887054e-05
1.2167489557549305201e-05
1.2202557629595217037e-05
1.2229104102150395144e-05
1.2245510435614523841e-05
1.2250303111311926877e-05
1.2245222924802072253e-05
1.0506985663744263846e-05
1.0496333584032351206e-05
1.0482689614790709746e-05
1.0471960784773192752e-05
1.0458103392220712539e-05
1.0447281670211289523e-05
1.0433183931550139172e-05
1.0422129359740317818e-05
1.0408016343507369152e-05
1.0396927318292869825e-05
1.0382814053761607961e-05
1.0371791855677075944e-05
1.0357722820809280834e-05
1.0346959122738371266e-05
1.0332934292903505567e-05
1.0322358518880753465e-05
1.0308430407514621784e-05
1.0297948555700396471e-05
1.0282285237379128903e-05
1.1756699505899009247e-05
1.1823066551118738599e-05
1.1862420017955048498e-05
1.1896077930534063274e-05
1.1946207691512184009e-05
1.202503609003194448e-05
1.2135825158643761892e-05
1.2268929839483205083e-05
1.2406156111361347266e-05
1.2525594846064171348e-05
1.2610707950119218678e-05
1.2655124824155040508e-05
1.2665354528522014665e-05
1.26572577364661662e-05
1.2635818168742342265e-05
1.2560689788014764299e-05
1.2409780513353256892e-05
1.2299876883860032221e-05
1.2239648650791839187e-05
1.221678175563629418e-05
1.2210192946504166753e-05
1.2224550253310320354e-05
1.2312246589127152306e-05
1.2462156717635834062e-05
1.2575370467779118305e-05
1.265364938624313537e-05
1.2706953487899138176e-05
1.2745655949801119503e-05
1.2777783418753194049e-05
1.2807928378717820653e-05
1.2836761104344708532e-05
1.2861318032681228981e-05
1.2878569145778513084e-05
1.2885116001006175306e-05
1.1068303564433132189e-05
1.1053833852203967574e-05
1.1042376294921726134e-05
1.1027762971009530114e-05
1.101628740052081252e-05
1.1001464596221203861e-05
1.0989934198773121041e-05
1.0975004743052375336e-05
1.0963379449734559067e-05
1.0948447100533776697e-05
1.093675216436073498e-05
1.0921780938664779698e-05
1.0910121655347769962e-05
1.0895186123772801574e-05
1.0883779697064760989e-05
1.0868911714540870517e-05
1.0857739857443520306e-05
1.0842994538357971027e-05
1.0831928922639955511e-05
1.0815329691996580688e-05
1.2254090485971795202e-05
1.2331610230026536553e-05
1.2439332725931537694e-05
1.253384217304537868e-05
1.2619786275216546666e-05
1.2704215788208252734e-05
1.2794650220680208884e-05
1.2892596220947653127e-05
1.2991491302122406469e-05
1.3080711906281705965e-05
1.3148278925059688361e-05
1.318681784109390665e-05
1.3197999102840779321e-05
1.3192118273720519238e-05
1.3177248451505807752e-05
1.3132002943386305463e-05
1.302935157213382889e-05
1.2953587853749679888e-05
1.29164967206921808e-05
1.2903948994257331026e-05
1.2905524779104836139e-05
1.2956450821878239088e-05
1.3132446266785944666e-05
1.331088375792291964e-05
1.3427887806156970271e-05
1.3492922877604086849e-05
1.3519100137754352982e-05
1.3521701211681703034e-05
1.3513910618097117926e-05
1.3503622255749581516e-05
1.3493648068814346108e-05
1.3486010571198805882e-05
1.3486503089089619525e-05
1.1628977327590378981e-05
1.1616714682389773001e-05
1.1601027135661970904e-05
1.1588794020194627654e-05
1.1573058083386213868e-05
1.1560902094791416662e-05
1.1545113739558297817e-05
1.1532920305449004128e-05
1.1517173922439611459e-05
1.1504933620786929332e-05
1.1489104678556995379e-05
1.1476795115747946319e-05
1.1460898315312297407e-05
1.1448777881773737592e-05
1.1432949816983412579e-05
1.142107519929551385e-05
1.140533696634559234e-05
1.1393564126701551811e-05
1.1375888050020279939e-05
1.3175853074249280265e-05
1.3315990276013466926e-05
1.3418626807998103063e-05
1.3493802625190434158e-05
1.3550679868872798786e-05
1.3598593513398552925e-05
1.3643957148309889679e-05
1.368983033760831114e-05
1.3732705725876627589e-05
1.3765246237847414803e-05
1.3780691440408264283e-05
1.3779356524231381446e-05
1.3769143470460155253e-05
1.3747328611925204976e-05
1.3682927329467088094e-05
1.3598361283263018509e-05
1.3546882036301954863e-05
1.3524466057445863607e-05
1.3516665245686488583e-05
1.353209076368780521e-05
1.3632307959464925033e-05
1.3812251052656464705e-05
1.3946694343671116209e-05
1.403686857159901391e-05
1.4094609992621551451e-05
1.4132760485595637109e-05
1.4161633700060818582e-05
1.418723150057966171e-05
1.4211272054295632551e-05
1.4232743936193193224e-05
1.4248713399468852699e-05
1.4257557426629112566e-05
1.2233593179739464838e-05
1.2220482258312817683e-05
1.2203773961589815973e-05
1.2190832507820132554e-05
1.2174203644131570827e-05
1.2161457615500573213e-05
1.2144893846133547751e-05
1.213221283120644324e-05
1.2115680760546758475e-05
1.2102909183467934617e-05
1.2086208385277377701e-05
1.2073286641637327304e-05
1.2056438336917581084e-05
1.2043533457271681265e-05
1.2026618721689901362e-05
1.2013907076042963328e-05
1.1997044292097283239e-05
1.1984429313514428423e-05
1.1965957551209156301e-05
1.3917902436391365773e-05
1.3979661103521796221e-05
1.4044587448451355442e-05
1.4122425331352340478e-05
1.4216449355720802539e-05
1.4321918464128428937e-05
1.4427023817795313538e-05
1.4513561015472995882e-05
1.4569191374413665096e-05
1.4591846531797667986e-05
1.4590197307974901204e-05
1.4577403640743912661e-05
1.4542465868922685226e-05
1.4433628156125775322e-05
1.4298624688883835229e-05
1.421433517080512843e-05
1.4174767103042118711e-05
1.4161515528709835062e-05
1.4164463859260809864e-05
1.4224118810175906877e-05
1.4388115807307210164e-05
1.4526957486647987976e-05
1.4624293398325231727e-05
1.4694016467306944372e-05
1.4752217951712152667e-05
1.4810523465320696632e-05
1.4873073609639816752e-05
1.4940657093594572288e-05
1.5006537244207732523e-05
1.506060499537055645e-05
1.2858581787797009841e-05
1.2840899419987630956e-05
1.282717225947235813e-05
1.280963653376406988e-05
1.2796293287059256404e-05
1.2778956364843440324e-05
1.2765770885804372955e-05
1.2748477787103005131e-05
1.273517791749825347e-05
1.2717642576839057576e-05
1.2704109679374680058e-05
1.2686241652170659013e-05
1.2672522727597614959e-05
1.2654458514028656601e-05
1.2640803743634364023e-05
1.2622702335368603298e-05
1.2609137875486278618e-05
1.2589641392519966353e-05
1.4539053646755317959e-05
1.4578355731466536085e-05
1.4626261011472259157e-05
1.4698833271393507658e-05
1.480574124131542614e-05
1.4945458995269228475e-05
1.5102662963307099265e-05
1.5247534210906235814e-05
1.5352745642264794949e-05
1.5405260774375799642e-05
1.541300707445238558e-05
1.5400126785697671621e-05
1.5359103784711103857e-05
1.5232413364046021667e-05
1.5098052888510809689e-05
1.5023743342531298593e-05
1.4994492515640928893e-05
1.498533974311875929e-05
1.4998557488473266753e-05
1.5087019800202381125e-05
1.5215725423466335117e-05
1.5303280078057303077e-05
1.5357607190778083795e-05
1.5390257676970523626e-05
1.541651199960365637e-05
1.5453166673993894311e-05
1.5509563401406830166e-05
1.5585677591111906016e-05
1.3552460085276444657e-05
1.3534112097640267004e-05
1.3519640709839496351e-05
1.3501386638309430499e-05
1.3487384426456789486e-05
1.346939011504053644e-05
1.3455638044388659283e-05
1.3437808711807547928e-05
1.3423934140504317582e-05
1.3405855865979683533e-05
1.3391645477093505173e-05
1.3373033863192053104e-05
1.3358524320538658114e-05
1.3339437871142722909e-05
1.3324785696626896374e-05
1.3305690806782991578e-05
1.3291232945016627552e-05
1.3271581612004978773e-05
1.5393159923285158568e-05
1.5382779196250649591e-05
1.5370630691050007454e-05
1.5360085152051959585e-05
1.5359334298003504346e-05
1.5400259378654535805e-05
1.5569770299003534174e-05
1.5779592133932329826e-05
1.5912196557369047163e-05
1.5970610416476047462e-05
1.5976238416165079991e-05
1.596031206857546195e-05
1.5909773657066514282e-05
1.5819540632313604543e-05
1.5769774272953373737e-05
1.5751852001644195411e-05
1.5750058032232112861e-05
1.579753651333753897e-05
1.594980182136009731e-05
1.6071936980188149008e-05
1.6133144216593507566e-05
1.6148824604389923327e-05
1.6140356009784170887e-05
1.6123195333265819234e-05
1.6096266416521378095e-05
1.608025286866857892e-05
1.6071674343971676811e-05
1.4176480653408414449e-05
1.4157271628001644894e-05
1.4140146753445519872e-05
1.4121306434786756444e-05
1.4104243211683090291e-05
1.4085425410266258367e-05
1.4068573615019595231e-05
1.4049626729000941897e-05
1.4032516140396915832e-05
1.4013164148715573335e-05
1.3995425352858657133e-05
1.3975447220695988164e-05
1.3956972891177374176e-05
1.3936651114774952374e-05
1.3917969932052281593e-05
1.3897731779711155437e-05
1.3879460814816240967e-05
1.5801652842669979004e-05
1.5695098409960777963e-05
1.5566108322906318731e-05
1.5481054304685866441e-05
1.5437678105373984637e-05
1.5422225178123755726e-05
1.542316057628199857e-05
1.5485870675202025688e-05
1.5759298966034633371e-05
1.6167727418667953614e-05
1.6441508120651407155e-05
1.6583486190223230245e-05
1.6631589519681250731e-05
1.6631606370628442709e-05
1.6619301600105602289e-05
1.6607919243599647953e-05
1.6605683945098192918e-05
1.664499044959704839e-05
1.6744430154140176379e-05
1.6803747032183899407e-05
1.6817759309009133381e-05
1.6806266548132027576e-05
1.6774910778437368032e-05
1.6668456286389694219e-05
1.644921879859100855e-05
1.6280455081205873289e-05
1.6180837436661747882e-05
1.4543360371972139595e-05
1.452632820097308835e-05
1.4502631011470224211e-05
1.4485606137251084689e-05
1.4461849664761978898e-05
1.4444793886600461885e-05
1.4420991819574615871e-05
1.4403821776999987044e-05
1.4379537356582073115e-05
1.4361978034296002049e-05
1.4336797695798712579e-05
1.4318560243405269159e-05
1.4292726164914081545e-05
1.4274400692138510685e-05
1.4244525441345796133e-05
1.4236441056585631419e-05
1.258574214244791804e-05
1.2471346116169450133e-05
1.238418040466652558e-05
1.2323273195031223849e-05
1.2285496521219018925e-05
1.2266496466826831094e-05
1.2257932132953705813e-05
1.2258660791466502349e-05
1.2296302400583122611e-05
1.2459418089187828242e-05
1.2872532098823776141e-05
1.3253290405371836923e-05
1.3527600298928608893e-05
1.3704692335464790787e-05
1.3807440619843711942e-05
1.3860647197089512653e-05
1.3882505362557902734e-05
1.3883676678572422374e-05
1.3874141003723404727e-05
1.3855235432581194748e-05
1.3802254675535532332e-05
1.3643149246413023427e-05
1.3415204902060877211e-05
1.3223258657034803255e-05
1.3073368649842181293e-05
1.296497322821729639e-05
1.2895144036604274651e-05
1.2857426946719752742e-05
1.137301760321389086e-05
1.13532273446753674e-05
1.1339080807508534796e-05
1.131925487812739735e-05
1.1305065310561926875e-05
1.1285198310588131373e-05
1.1270984500188612485e-05
1.125088035894976559e-05
1.1236526032236447022e-05
1.121593684119498674e-05
1.120127077782673549e-05
1.1180275236629714659e-05
1.1165602536896301645e-05
1.1141443010905036618e-05
1.1137990979729250809e-05
1.209920860739007531e-05
1.2027190346095722497e-05
1.1967717479121195358e-05
1.1922821260300261372e-05
1.1892981694349218319e-05
1.1877014130136503774e-05
1.1868922014430191523e-05
1.1870163510235251817e-05
1.1908315533694797725e-05
1.2059488298452190251e-05
1.2289525891179769014e-05
1.24811029613749805e-05
1.2630408683418645682e-05
1.2742007966169073313e-05
1.2821732233856232493e-05
1.2873404869781565816e-05
1.2899598598764456888e-05
1.290515592661245492e-05
1.2898493442672831277e-05
1.2887098782596281401e-05
1.2864384881235390164e-05
1.2804301628747962212e-05
1.2693845135374042394e-05
1.2597124115023258228e-05
1.2522581776456472125e-05
1.2472254649109916209e-05
1.2443709266395060737e-05
1.0771542656291515556e-05
1.0759010587191535538e-05
1.0741825775101167302e-05
1.0729223713674711354e-05
1.0711913887795789958e-05
1.0699308488848993483e-05
1.0681828096868390258e-05
1.0669130039658995303e-05
1.0651319677286971482e-05
1.0638334776031100731e-05
1.0620136342390556816e-05
1.0607098872784854573e-05
1.0586639936969177237e-05
1.0578207191375837981e-05
1.1489289108269150789e-05
1.1453317048311287258e-05
1.1432080239288281933e-05
1.142056614103931278e-05
1.1413848222438558618e-05
1.1416670482715128495e-05
1.1451137658909002256e-05
1.1542801191724062849e-05
1.1644755681699526758e-05
1.1749193573802363364e-05
1.1855302151357425552e-05
1.1961504761450230587e-05
1.2064601752343436362e-05
1.2158992574816725608e-05
1.223656554634453831e-05
1.2289802700078218941e-05
1.2316407001342666145e-05
1.2320306843387049121e-05
1.2312586933208515371e-05
1.2297531338905458276e-05
1.2256269733199640665e-05
1.2159899680991069986e-05
1.2072297262866659587e-05
1.201267571867457153e-05
1.1978969344459912386e-05
1.1964535430395354697e-05
1.0361990192992024719e-05
1.0345642177189978158e-05
1.0333583715429167825e-05
1.0317130415498839489e-05
1.030506781718094176e-05
1.0288443159403634072e-05
1.0276321430130041791e-05
1.0259511839475752199e-05
1.0247241564037526434e-05
1.0230125841516139244e-05
1.0217822753328922037e-05
1.019916610032067393e-05
1.0190118031324901443e-05
1.0961283959181117165e-05
1.0954004103057810658e-05
1.0954703231241832867e-05
1.0987609033773217094e-05
1.1092089296351049621e-05
1.1198730962152038504e-05
1.1284590021622284227e-05
1.135419076772443396e-05
1.1411101694033031219e-05
1.1462688028370945104e-05
1.151581540633245208e-05
1.1573505679699620606e-05
1.163291842031300784e-05
1.1686265166838054699e-05
1.1724825173787199921e-05
1.1744194898544397452e-05
1.1746046546743470394e-05
1.1738632857224724415e-05
1.1725384623441630506e-05
1.1692265506895211202e-05
1.1623654935692444236e-05
1.1565229010487189449e-05
1.1525992755415121881e-05
1.1504780227438394507e-05
1.1495079164645385399e-05
9.9537427397876028013e-06
9.9420521292490704137e-06
9.926073650288800597e-06
9.9143458821881644375e-06
9.8982156932097401962e-06
9.8864742418580555636e-06
9.8702684492790045779e-06
9.8584893714500635624e-06
9.8420576877393018984e-06
9.830284278344576885e-06
9.812398752135267758e-06
9.8037804736721501309e-06
1.0515059196824020889e-05
1.0511515510187138171e-05
1.0526697786453259782e-05
1.0606045191094664297e-05
1.0747775085257459872e-05
1.086529003342045924e-05
1.0955718523145393573e-05
1.1019851436544157426e-05
1.1066394834584283478e-05
1.1105985802858912593e-05
1.1147029246211631774e-05
1.1191255791348426305e-05
1.1233607212636628072e-05
1.1266156367795617654e-05
1.1283265327387104369e-05
1.1285312998629415049e-05
1.1278431468388018695e-05
1.1266402616969535506e-05
1.123741579478547619e-05
1.1170022058601623748e-05
1.1107333470524780972e-05
1.1065990372872995171e-05
1.1044374144621176584e-05
1.1035165342852850038e-05
1.0118327103263875246e-05
1.0143908626355954729e-05
1.0233486610357492655e-05
1.0339034904324339938e-05
1.043390785013730537e-05
1.0513969564788682297e-05
1.057825129784571819e-05
1.0628032712544370931e-05
1.0667286135237258714e-05
1.0699716478179594782e-05
1.0726616124839443079e-05
1.0746024891900823653e-05
1.0755673339011835753e-05
1.0755287930590155186e-05
1.0748705235099748859e-05
1.0738032578447350026e-05
1.0713528192362024199e-05
1.065266792261803588e-05
1.0588500162138467743e-05
1.0543359546336348453e-05
1.0516657074924229379e-05
1.0504421345926964474e-05
1.0499254871615466725e-05
9.8779445316770526784e-06
1.002945861008501062e-05
1.015579682404876003e-05
1.0249654895742454721e-05
1.0308611332432032431e-05
1.0336533599745608865e-05
1.0343163102514735686e-05
1.0339698592252138259e-05
1.033464499938421794e-05
1.0330526351453295616e-05
1.0326911447308244487e-05
1.0321283443431069409e-05
1.0314061870371122429e-05
1.0303697464199616267e-05
1.0282242659496738501e-05
1.0234233553100847156e-05
1.0185745349384310514e-05
1.014954697490002197e-05
1.0126078100018859283e-05
1.0113763390134652848e-05
1.0107299488517437638e-05
1.0029300278773910503e-05
1.0066630601920136803e-05
1.0075097979020139773e-05
1.0069583536836682739e-05
1.0060315631062158353e-05
1.00439969252993792e-05
1.0015970686445490283e-05
9.9868113852513120727e-06
9.954016320380654724e-06
9.9155695478302415246e-06
9.8732094111229452631e-06
9.8307568386510654063e-06
9.7919454469829166277e-06
9.7601815873918395302e-06
9.737627372597566002e-06
9.7241982113181154771e-06
9.7171858109311186384e-06
9.6599072004808651652e-06
9.6519335300540010488e-06
9.6386876863839779784e-06
9.6093585645853521704e-06
9.5659145812815008392e-06
9.5226217486901842648e-06
9.4816743704136131606e-06
9.4448202955444484361e-06
9.4143574680603929223e-06
9.391371584952588322e-06
9.3760584445998589167e-06
9.3674119280394170501e-06
9.3620525847634185752e-06
9.2237863774445031148e-06
9.2189634958191126092e-06
9.21255407756542569e-06
9.2050449930337491922e-06
9.1937326504382135763e-06
9.1727282784440948766e-06
9.1485670638228929478e-06
9.1272205782725332137e-06
9.1091851606458799028e-06
9.0954706487361434487e-06
9.0859161975161885512e-06
9.0797386778548172656e-06
4.6393297153970298568e-06
4.6330134683983228416e-06
4.631661807215471736e-06
4.6442685441043908564e-06
4.7071952485086620565e-06
4.9305138322754701961e-06
5.3072201514961162214e-06
5.6017004943027037131e-06
5.7975165300916392321e-06
5.9037190148379600107e-06
5.9424256328349304065e-06
5.9443880507132642704e-06
5.9319630775828526012e-06
5.8795412446616872074e-06
5.7123840573931831802e-06
5.5188082808258892757e-06
5.3772245690559817061e-06
5.2851342593669900369e-06
5.2310172092890623141e-06
5.2026383841817794841e-06
7.0369097290000122305e-06
7.0302877837493765013e-06
7.0307298118233584969e-06
7.0536080324567117185e-06
7.1445224347221080968e-06
7.4291599767276762965e-06
7.8175901129442054548e-06
8.1342790539741000885e-06
8.36107196420072545e-06
8.497173435072989702e-06
8.556036662113997206e-06
8.5659782886314561091e-06
8.5569238156153167783e-06
8.5254459147272151009e-06
8.4157530127580591008e-06
8.1687762125790013739e-06
7.9487649779859865146e-06
7.7860661478054436269e-06
7.6790690826007972514e-06
7.6167736691864681151e-06
7.583669130125545059e-06
7.5663041848176017484e-06
1.3185426219762088595e-05
1.3185176851455416132e-05
1.3201780765126800793e-05
1.3252362958892572028e-05
1.339024860592374211e-05
1.3670594058562293791e-05
1.3983323108070524796e-05
1.4281597461384471415e-05
1.451493361925009645e-05
1.4662996521968479289e-05
1.4725099236387013626e-05
1.4731637393952463271e-05
1.4716610563329689934e-05
1.4684688883394737469e-05
1.4597848602422448507e-05
1.439286289483632746e-05
1.4203465353750762188e-05
1.4073836774338142783e-05
1.4008711399844022352e-05
1.3988403145920874372e-05
1.3982246786818493687e-05
1.3997711436960727871e-05
1.4043698700384144528e-05
1.4075413348875760581e-05
1.4116709112796442952e-05
1.4190557086741772692e-05
3.017592362301928867e-05
3.0484612432584393967e-05
3.0807599848826221244e-05
3.1165732671598864222e-05
3.1561798831886366228e-05
3.1985482900387157603e-05
3.2405603042168622274e-05
3.2768278215866518529e-05
3.302693186546080495e-05
3.3158020748096034356e-05
3.3186446299694239998e-05
3.3160363752996637582e-05
3.3107514853514659553e-05
3.2973718782084054967e-05
3.2748029597100444777e-05
3.2583093232675550089e-05
3.2491746614680444463e-05
3.2455477878081927527e-05
3.2439667144775552541e-05
3.2460447769047044275e-05
3.2586694910838795154e-05
3.2764458157192428121e-05
3.2921553333789573665e-05
3.3073013910419745299e-05
3.3242424883379440416e-05
3.3441650291340883883e-05
3.3672919747191878894e-05
3.3917274319181987775e-05
6.3284127948550096673e-05
6.3504813801690525939e-05
6.3715199946899188864e-05
6.3915848084657988777e-05
6.4104131164738434876e-05
6.427906187646755822e-05
6.4419881394882366624e-05
6.4511648529102334423e-05
6.4539396022821998158e-05
6.4516551160922054435e-05
6.4467409490526873068e-05
6.4395857863100674622e-05
6.4262858399625065096e-05
6.4096180853727533107e-05
6.3959451881451286482e-05
6.385995641865823292e-05
6.3798745768195355005e-05
6.375669201121839276e-05
6.3744960598802207939e-05
6.3803950463898895652e-05
6.3873954479217034475e-05
6.3929292022252886467e-05
6.3972994250046215652e-05
6.4009108229827298142e-05
6.4031982480667416551e-05
6.4034092244449455282e-05
6.4013529162853358731e-05
6.3974879415924014751e-05
6.3928823869744427918e-05
6.3874181865928572263e-05
9.2266514357499640453e-05
9.2122117298346013802e-05
9.1957702008578710005e-05
9.1771370001403172615e-05
9.1562520428664507101e-05
9.1332175950713796026e-05
9.1083114686831017802e-05
9.0818665082838002109e-05
9.0542876045453344214e-05
9.0262760825291071527e-05
8.9988952720311936599e-05
8.9733106046014773026e-05
8.9503986351483820027e-05
8.9303573484998606839e-05
8.9127285792732296142e-05
8.8966025229336945387e-05
8.8809674721228808571e-05
8.8650350888641140973e-05
8.8483707057843304349e-05
8.8308730285233146668e-05
8.8125802214849874479e-05
8.7936420743783827447e-05
8.7741339872993029544e-05
8.7540209444329411927e-05
8.7331152968781529822e-05
8.7111139359678378853e-05
8.687806665670270382e-05
8.6631794920130999311e-05
8.6376190854803845155e-05
8.61175968854943478e-05
8.5864353464304595236e-05
8.5623448525381647372e-05
0.00010584185240801124669
0.0001055034477759885116
0.00010516313173509125585
0.00010481921949880219132
0.00010447396472449610374
0.00010413211511249470293
0.00010379787907448098292
0.0001034719082196265932
0.00010315212378417953909
0.00010283699653686060238
0.00010252758848859192572
0.00010222672767382768146
0.00010193583770055256686
0.00010165264908173113454
0.00010137300024783446096
0.00010109294697280836971
0.00010081157758992000529
0.0001005303361727370151
0.0001002513097850271927
9.9975815030885667499e-05
9.9703768902890445042e-05
9.9434178420475832663e-05
9.9165737967619294697e-05
9.8898184801419285303e-05
9.8631767008800112838e-05
9.8367506532303448778e-05
9.8106685741371183634e-05
9.7850505129359693045e-05
9.75999866534604289e-05
9.7355578149595532267e-05
9.7116899223879856731e-05
9.6883232144118571795e-05
9.6653355151360114263e-05
0.00014078557091485769488
0.00013996859020895012558
0.00013917207331784310436
0.00013839143356719180275
0.00013762189403297950025
0.00013686452000773437839
0.00011098018720475888118
0.00011063046881082029972
0.0001102811754779560151
0.00010993128403397586562
0.00010958396142518039167
0.00010924468598415314809
0.00010891686780040687728
0.00010859919015163592762
0.0001082876280303609809
0.0001079793219847954112
0.00010767535505301219331
0.00010737946828811788084
0.00010709374395787064926
0.00010681612752912848113
0.00010654182483421898808
0.00010626708205241544418
0.00010599194331068632674
0.00010571901438085774664
0.00010545126180720455463
0.00010519009443868583553
0.00010493533010108959443
0.00010468567829693883062
0.0001044399930119756741
0.00010419739580650479161
0.00010395731812677802075
0.00010371960413487224279
0.00010348419678960441503
0.00010325192040719352658
0.0001030238482034015918
0.00010280012125803799879
0.00010258046453876125534
0.00010236442114558258443
0.00010215181933279855243
0.00010194295642024991738
0.00013674066939531459163
0.00013598470144871247357
0.00013522858493065573735
0.00013447779462807149357
0.00013373217343649627053
0.00013299614817162964107
0.00013227581305901001444
0.00010654920092082727039
0.00010624191042915036493
0.00010593265856948045874
0.00010563238632993778834
0.00010535351397953535721
0.00010510262980484398946
0.0001048762251527977224
0.00010466444268900283211
0.00010445925845911769832
0.00010426074036768073143
0.00010407452165749983704
0.0001039024970789582448
0.00010373906701559163423
0.00010357490601026318625
0.00010340386598530738828
0.00010322819011705406615
0.00010305515132255338689
0.00010289148977545425759
0.00010273813066485021448
0.00010259088851559802953
0.00010244320045480642158
0.00010228983497093563663
0.00010212868057996061513
0.00010196052234404148046
0.00010178796643258285226
0.00010161402720291905536
0.00010144182030073402984
0.00010127312946794377567
0.00010110841960365081103
0.00010094717889527948438
0.00010078848016854679442
0.00010063159228969667785
0.00010047661713938005009
0.00010032356111892462125
0.00010017130352158237967
1.137111265167281601e-07
1.135700392250322222e-07
1.1339644570399611274e-07
1.1327096813255589038e-07
1.131109841424144364e-07
1.1298884372835397622e-07
1.1281155955799739955e-07
1.1267588064710545525e-07
1.1245434358768385574e-07
1.1229759878505742753e-07
1.1197742065550147238e-07
1.1654339745069120458e-06
1.1933506921818225548e-06
1.2094732903977701792e-06
1.2147939575366849407e-06
1.2136613068271481632e-06
1.2036819691571868006e-06
1.1650123832317945791e-06
1.1240058648079614842e-06
1.1049628853863767779e-06
1.1015710695196523275e-06
1.1069078660081110732e-06
1.1416424224543181339e-06
1.2153741839053459676e-06
1.2618693327843750299e-06
1.2816584067547908919e-06
1.2850112558223358387e-06
1.2823121103459308796e-06
1.2706585249842792475e-06
1.2592330323913460769e-06
1.256828534219457913e-06
1.2613250060370978945e-06
1.2930989737439756516e-06
1.3848953293406435806e-06
1.4594614628425052684e-06
1.4963680505368936521e-06
1.5069804673314436864e-06
1.5055586493144176367e-06
1.4925141799443402849e-06
1.4408038306172589095e-06
1.37771529368356115e-06
1.3404662845603074293e-06
1.3254751833653834685e-06
1.3231163230827617971e-06
1.3275408187571939236e-06
1.3560998501315782158e-06
1.4180166677515111568e-06
1.2136141164587440722e-07
1.2119188489331310063e-07
1.2105671570438645312e-07
1.2094805651841534194e-07
1.2085165355622180149e-07
1.2075392248710345418e-07
1.2065154458933450301e-07
1.2054083412633324411e-07
1.2039838255925588557e-07
1.2022884899106697114e-07
1.1999644894035170045e-07
1.1979866190100092428e-07
1.1957689258463414884e-07
1.1942429077191630955e-07
1.1923709313649254756e-07
1.1909860235335960537e-07
1.1889220365584299841e-07
1.1874197350916847183e-07
1.184897513410748306e-07
1.1830448049547801641e-07
1.1792418814576160985e-07
1.1503351679824315946e-06
1.156070705378798393e-06
1.1723680033192093068e-06
1.1825282671862164366e-06