/*--------------------------------*- C++ -*----------------------------------*\
  =========                 |
  \\      /  F ield         | OpenFOAM: The Open Source CFD Toolbox
   \\    /   O peration     | Website:  https://openfoam.org
    \\  /    A nd           | Version:  12
     \\/     M anipulation  |
\*---------------------------------------------------------------------------*/
FoamFile
{
    format      ascii;
    class       volScalarField;
    location    "0.0095";
    object      p;
}
// * * * * * * * * * * * * * * * * * * * * * * * * * * * * * * * * * * * * * //

dimensions      [1 -1 -2 0 0 0 0];

internalField   nonuniform List<scalar> 
106891
(
100778.55318429972976
100771.58130457389052
100763.1804135608254
100755.03309348400217
100748.40011684977799
100743.97574406598869
100741.87004132472794
100741.73343272415514
100742.84082279980066
100744.50868279201677
100746.03422378651157
101250.60358537122374
101228.26251790682727
101195.61665997472301
101161.34117402105767
101133.06128869313397
101115.05138560567866
101107.95816880690109
101109.37031832314096
101115.31471527280519
101121.11067829201056
101123.10451284889132
101120.15300486444903
101112.79113266161585
101103.05438886197226
101093.56337317000725
101086.40047790470999
101083.34697223483818
101086.02667496954382
101094.23531131655909
101105.27539381812676
101114.01135886003613
101115.97559763814206
101109.78740263302461
101098.55549807928037
101087.05452538539248
101079.14829036203446
101076.37954928627005
101076.68015624035615
101076.28448645141907
101071.75605370300764
101062.19420176415588
101048.44980685839255
101033.39093805241282
101020.1535531632544
101010.21921338011452
101002.51864415082673
100994.30748115113238
100982.34608621058578
100669.86850856723322
100689.33386053076538
100710.05589505222451
100730.4979826448689
100748.98729696463852
100763.95567495211435
100774.20055383660656
100779.09690073088859
100778.73485646636982
100773.92320125027618
100766.08449616072176
100757.01055924558023
100748.52024089889892
100742.10893723979825
100738.70926074085583
100738.56236163432186
100741.31366257100308
100746.05533305885911
100751.64798897701257
100756.98389045179647
101218.98051839454274
101183.08220534354041
101147.25690274249064
101121.39004670448776
101109.74406526173698
101111.55133711504459
101121.3305004343274
101132.59297166571196
101138.41698505532986
101134.38739764492493
101120.19985324077425
101099.61583459039684
101078.92755925556412
101064.18744891509414
101058.99040037910163
101064.08981055537879
101077.03864417804289
101093.28882289482863
101107.06009198454558
101113.52756172016962
101110.96809242120071
101101.33399302978069
101089.1602150756371
101078.89017087389948
101073.00282503999188
101071.08432759990683
101070.49944204332132
101068.5299513337377
101062.69522848406632
101052.262726516783
101038.74193039473903
101024.77224838652182
101013.46742413856555
101006.38457702819142
101001.98479726731603
100996.63449648527603
100685.13461375617771
100703.12368769806926
100720.99559204337129
100737.68473279064347
100752.07415408932138
100763.10976505531289
100769.96574177393632
100772.22741099366976
100770.02260722167557
100764.09898995743424
100755.76555280952016
100746.7019504270138
100738.67793616153358
100733.23419278034999
100731.39081451114907
100733.42629615269834
100738.91457041024114
100746.78151519539824
100755.55245816340903
100763.89604255840823
101206.47444442749838
101172.12988872687856
101138.3989067676448
101115.74334242846817
101108.89659396868956
101116.15035624305892
101131.20562331998372
101145.29177949241421
101149.92587500614172
101140.00689257505292
101116.22465038715745
101085.22335346354521
101056.99303985905135
101040.41957736984477
101040.3979040269478
101055.08159889165836
101077.28535645904776
101097.75915232227999
101108.75904430521769
101107.66063605494855
101096.94890528470569
101082.98786248793476
101071.45002454654605
101065.33091012306977
101063.77835468327976
101064.20052657283668
101062.90436313774262
101057.70201928741881
101047.87792124546831
101034.96081327197317
101020.96653683412296
101008.4682900057378
101000.60681915037276
100998.47014109513839
100999.81110308156349
101000.09141581717995
100711.46803445920523
100725.62200674593623
100738.31653368497791
100748.86523722652055
100756.5727199416724
100760.84084292700572
100761.33296788776352
100758.13662328961072
100751.87974885360745
100743.72280570294242
100735.24015388218686
100728.14392979933473
100723.95256881721434
100723.68358192949381
100727.55506251602492
100735.02773979293124
100744.89093837962719
100755.47499738975603
100765.44518644936034
101160.67453875789943
101132.15322711286717
101113.09745977586135
101108.71098403105862
101118.04038748513267
101134.73811562229821
101148.89562241871317
101151.3966080500395
101137.25438883063907
101107.91870661976282
101071.96793862314371
101041.99063783176825
101028.35253830630973
101034.93644325999776
101057.20424960646778
101083.96225145428616
101102.80316139481147
101106.00932758158888
101094.2260786703846
101074.81487479920906
101057.18510700232582
101048.08174947062798
101047.93176558050618
101052.0637176274322
101055.06866367833572
101052.28300493926508
101042.87354084826075
101028.22200194728794
101011.67366179387318
100996.6946186786663
100986.50428584452311
100983.58527279524424
100988.13532778588706
100997.37875513016479
100700.23095566422853
100710.77829381894844
100720.37078692957584
100728.97672707102902
100736.32420089124935
100741.94258429137699
100745.30212632173789
100745.99351371735975
100743.90459313195606
100739.37052371269965
100733.21389667925541
100726.69438076882216
100721.28681808162946
100718.33990117226494
100718.80314244166948
100722.91701380733866
100730.21865504127345
100739.59188973277924
100749.43166805632063
100758.6321742527507
101145.92698275342991
101124.61085190185986
101109.26047907602333
101105.59768627661106
101113.95043067476945
101128.74203767887957
101140.56055742685567
101140.36951719307399
101123.97798551137384
101094.16378016304225
101060.7386904280138
101035.97570211460697
101029.1405553783552
101041.62524409896287
101066.51331815014419
101090.79873760217743
101102.27412382766488
101095.26105359982466
101073.4984620144387
101047.31188442041457
101028.11703911794757
101021.74794917798135
101027.0214382102713
101036.61949811753584
101041.54597531768377
101037.90349902423623
101024.98715372184233
101006.53050935412466
100987.35320331367257
100972.17594627427752
100964.53544007061282
100966.87056881948956
100978.95128619520983
100699.09139666090778
100704.04598487354815
100709.20147131034173
100714.65120073039725
100720.07248003548011
100724.83141560637159
100728.22871873268741
100729.77518495563709
100729.34170755237574
100727.23547254434379
100724.18901478432235
100721.21654642281646
100719.33722303829563
100719.35354079368699
100721.56987553597719
100725.79796830106352
100731.37674575265555
100737.17739530382096
100742.62670051358873
101111.25170659027935
101100.26449945755303
101096.4807653503085
101101.51697141569457
101111.38965947678662
101118.49358897229831
101115.15655177156441
101098.72204977835645
101073.80720292949991
101049.82564832823118
101036.08267122136021
101037.8997962676367
101053.75507363265206
101075.34763030031172
101091.15605884566321
101092.35348283030908
101076.35456105649064
101048.70551913134113
101020.19172925989551
101000.90116242918884
100995.71833033417352
101002.46352273716184
101014.0362615139602
101021.28011948075437
101018.51017643453088
101006.11916106878198
100988.07847890493576
100969.37935009255307
100955.2897004057304
100950.6167169012042
100957.85258604449336
100975.75593771132117
100676.94973705087614
100678.00285190089198
100681.07340196975565
100686.48400075591053
100693.92608179678791
100702.55915101214487
100711.25439350261877
100718.91729214141378
100724.76051203052339
100728.40676674817223
100729.91592810989823
100729.72294373629848
100728.43342045815371
100726.67011203755101
100724.86107563393307
100723.26940139461658
100721.96478813688736
100720.65086108507239
100719.55361850776535
101083.72495853711735
101079.80420169158606
101080.23420628825261
101082.63441958642215
101082.39477195532527
101075.39406426157802
101061.59621783041803
101046.05519826650561
101035.73378179418796
101035.62086855102098
101045.69030526174174
101061.611360815019
101075.52627537808439
101080.38135897820757
101072.25171822632547
101052.26252700290934
101025.4466362081148
100999.57935639817151
100981.2324978565739
100974.0263930218498
100977.17559312314552
100986.07695464805875
100993.98111372298445
100995.74338638305198
100989.46469289198285
100977.42159526905743
100963.63267966134299
100953.46501626331883
100951.99026184948161
100961.5886775093968
100648.88351417552622
100651.79518980273861
100658.99028056772659
100670.08241766665014
100684.01785619599104
100699.27457533303823
100714.12105144045199
100727.00614385101653
100736.82779592333827
100742.92162464393186
100745.10919550336257
100743.65859083892428
100739.1233392694121
100732.123316127414
100723.42387928931566
100713.85340947398799
100704.00017433389439
100694.96715071680956
101056.63689123642689
101050.28368885588134
101042.41135019232752
101033.13340330088977
101023.13022547055152
101014.66537995809631
101011.83698561959318
101017.18554991835845
101029.98252321503242
101045.74002532217128
101057.88604066804692
101061.69143953833554
101056.37227874749806
101043.74682332032535
101027.33278242232336
101009.59267963164893
100991.69050581938063
100975.49405378349184
100963.40141318237875
100957.64943788333039
100959.43746673538408
100966.52809180966869
100974.22566052735783
100978.01339511644619
100976.80414503756037
100972.17656939613516
100967.98261879979691
100969.53467549110064
100625.18109775632911
100629.64433507465583
100639.61538776406087
100654.7161935785989
100673.74853959667962
100694.88894494801934
100715.97385270350787
100734.82791023130994
100749.63809588087315
100759.1827498490602
100762.80916143435752
100760.48322735406691
100752.7891001333337
100740.6914264124789
100725.42306456126971
100708.4251294543792
100691.06018487733672
100675.08048559921735
101014.55133045687398
100996.15982508656452
100979.39932601687906
100969.1411856226332
100968.83992299334204
100978.8637716028752
100996.82306433192571
101017.54849858193484
101033.18473392125452
101038.15469185457914
101032.83986725840077
101021.9041997227614
101012.39702722296352
101007.25049278470397
101004.92150334797043
100999.95086325978627
100988.1990110186598
100971.5260113071563
100956.11539246868051
100948.17022180349159
100950.73616247384052
100961.266475638884
100973.79180683381855
100982.62155391513079
100986.69815101745189
100989.04031378237414
100993.43298901311937
100621.67438177445729
100633.6767393356713
100650.99952689958445
100672.57426842955465
100696.59684286278207
100720.83962593520118
100742.89747281459859
100760.51213467823982
100771.96063048891665
100776.25838381261565
100773.14405391886248
100763.11935422713577
100747.3665986397973
100727.60438562344643
100705.81677039890201
100683.94500275450991
100664.10873821553832
101003.23282892808493
100982.07920540535997
100958.92104673666472
100941.67074693614268
100936.23907979765499
100943.83282431562839
100961.38253947897465
100983.1358078946505
101001.50341960831429
101010.65563068423944
101008.7303640734317
100999.38990648830077
100990.55086668182048
100989.69304966073832
100998.94440198181837
101012.28735471138498
101020.18110859082663
101015.50067764378036
100999.11011591031274
100979.15508025740564
100964.20060905002174
100960.48133322587819
100966.90965742561093
100978.12340438310639
100987.58091507139034
100992.98461866333673
100996.47337971210072
100643.4757804088149
100659.62457792874193
100679.62222495336027
100702.13581278000493
100725.24972672385047
100746.74100993538741
100764.36057693151815
100776.14388076163596
100780.72922979884606
100777.56450280405988
100767.02676055136544
100750.29265430389205
100729.27008418018522
100706.34694827205385
100683.90887236899289
100664.1927027549682
100989.18320918170502
100968.26234113813553
100949.16550528748485
100939.06215050180617
100940.67651417090383
100952.2675432531687
100968.36776377112255
100983.26883101083513
100992.40656468235829
100994.26052864713711
100989.6901810116542
100982.67763369582826
100979.85681894542358
100986.81574115745025
101003.17522791074589
101022.86613518622471
101037.02209344456787
101039.50951475840702
101030.15686403142172
101014.5454227100272
101000.7688970266463
100993.49234416552645
100991.81904263597971
100991.98618434941454
100990.28935393197753
100986.71176902405568
100984.05119954628753
100985.90652451524511
100676.25247272258275
100691.78517536284926
100709.76069209822163
100728.83435056863527
100747.21947390009882
100762.85919251661107
100773.74136315814394
100778.32625334663317
100775.83081176406995
100766.35983997987933
100751.01237901294371
100731.73309263346891
100710.9551154125802
100691.21039647255384
100674.76013713322754
100968.95484617132752
100957.2449171179469
100955.04431293164089
100962.03195229666017
100973.72393968363758
100984.61498435941758
100990.67389586739591
100991.85194258498086
100989.66983926924877
100986.12968331572483
100983.59042371052783
100986.19382593820046
100996.09232853539288
101012.81747841720062
101032.08857509634981
101047.22255393037631
101054.29322834775667
101052.51051682059187
101044.72806151898112
101035.50968384846055
101026.98782638493867
101018.50221751365461
101008.02555232177838
100994.78807596224942
100980.96232357509143
100970.601546849648
100968.27998219242727
100705.11961271335895
100718.33516031644831
100733.09540088064387
100747.9871960204182
100761.17900151203503
100770.78087408670399
100775.19442378765962
100773.41921982321946
100765.3781157728954
100752.04815260352916
100735.29557814172585
100717.54691524978261
100701.39546294862521
100688.93878440605476
100979.38327069861407
100983.66837542809662
100992.63805636079633
101000.58974975762249
101003.79738084379642
101002.2035012117849
100999.03033823620353
100997.08565052614722
100997.48274367056729
101000.34015845510294
101006.04264044704905
101014.37018940149574
101026.21394484108896
101040.08486437388638
101053.01673016534187
101062.59033159942192
101067.20076792927284
101066.59918754013779
101061.72069854372239
101052.88485525613942
101039.80033088185883
101021.95491820124153
101000.92145546626125
100979.84105439370614
100963.61973787896568
100957.57784390408779
100729.43741443767794
100739.88938717539713
100751.04246834336664
100761.39475484310242
100769.27665491384687
100773.1316412347951
100771.87206137864268
100765.29447650660586
100754.22964047524147
100740.38681825828098
100726.04156110447366
100713.6414893415058
100705.13435964874225
101019.36550609538972
101025.00100624599145
101025.62238644670288
101020.9626579892647
101015.07895941854804
101012.5173350628902
101015.39304056494439
101022.41251686801843
101029.97698189757648
101035.03042715776246
101037.66706388386956
101040.34622306695383
101046.06460834013706
101055.26844476578117
101065.98142014666519
101075.0003384835145
101079.05638373244437
101076.33154828210536
101066.76380024883838
101051.11243127311172
101030.62172548632952
101007.81783157955215
100985.69113398900663
100968.73997484368738
100961.59473358574905
100750.35510284702468
100757.86113504429522
100765.17997673904756
100770.91764230713306
100773.67189931706525
100772.44598683749791
100766.97271236746747
100757.89507625215629
100746.63919692060153
100735.18512854338042
100725.80219933780609
100720.3310252896772
101056.22374413379293
101047.17341935935838
101035.48584857824608
101028.25227317096142
101030.25710557523416
101041.4082253438246
101055.92279305082047
101066.08557607510011
101067.44175752760202
101061.30506848028745
101053.51824885798851
101050.48935854512092
101055.47124413066194
101066.29062491284276
101077.67561716082855
101083.20351868768921
101080.306194695062
101068.82266162185988
101052.26439810988086
101033.27966716853552
101014.39159825840034
100997.77514920198882
100985.96420633932576
100981.35052463732427
101066.91392620139231
101049.40232114320679
101042.66815270374354
101050.87442046428623
101070.40490681772644
101090.83328494087618
101101.74712700681994
101097.80754226267163
101082.52384797090781
101064.88907721413125
101054.31420707974758
101055.41739886938012
101065.40814650169341
101076.81600167282159
101082.11142205102078
101076.93322995015478
101063.60279305235599
101047.1717286806379
101032.14834775401687
101020.70414111291757
101013.62865227005386
101010.87013987945102
101012.2171944501315
101060.49387286321144
101073.58731610210089
101098.62278164681629
101122.21172991112689
101131.87057183965226
101122.80414445453789
101100.23004472222237
101075.26141821226338
101059.03073466237402
101056.55396051335265
101064.79905635328032
101074.9493452154129
101078.67080332725891
101072.28926892770687
101058.25136364987702
101042.60059994924814
101031.46573876240291
101027.42671459926351
101030.24833543039858
101037.73859178967541
101047.03040692664217
101153.98719656043977
101141.37275059521198
101114.84445551576209
101085.95460964880476
101065.78343510576815
101059.80724198518146
101065.24354497341847
101073.72906748529931
101076.98771238180052
101071.29701868836128
101058.30765246899682
101044.13853612526145
101035.39214042937965
101035.93115098860289
101045.8318460862647
101061.96063257221249
101079.76396200543968
101074.87766261275101
101065.64690687185794
101067.76013924487052
101074.73678109599859
101079.08399138976529
101076.52825871804089
101066.86148590339872
101054.70686360560649
101046.55463209796289
101047.80999747701571
101060.44725157498033
101081.99209044074814
101107.13749742365326
101073.75568565313006
101072.63876091672864
101078.69281872759166
101085.84279633658298
101088.61871981885633
101084.38389301825373
101074.71516212722054
101065.65774231574323
101064.37057078354701
101075.43420837151643
101098.4920484055765
101128.40566826109716
100835.82804545770341
100818.54966416177922
100807.23296226392267
100801.37489666760666
100801.73953325269395
100809.2826247724297
100821.05649470807111
100830.25744357146323
100832.13403022568673
100826.82396576568135
100819.05967109555786
100814.61893739597872
100816.35415300933528
100824.85891503094172
100838.89417731385038
100856.08467567680054
100872.96147667930927
100886.57593958071084
100896.91374048536818
100906.36238003605104
100855.9659737705806
100834.80206073875888
100821.86689692930668
100813.51827058862546
100807.90612613763369
100806.9668373871973
100813.31654283162788
100826.36087057362602
100838.80604230525205
100843.47938988148235
100839.01557730158675
100829.68684502506221
100822.49401567228779
100821.93793625971011
100829.32390220604429
100843.11763032976887
100860.38688291398284
100877.28815979522187
100890.66191697515023
100899.90181857517746
100907.08186820235278
100914.3681356414163
100910.38850717105379
100880.15202444046736
100851.7922114059329
100833.64051808220393
100824.99858897144441
100819.69483988618595
100814.14723788063566
100811.54812311158457
100816.92103571875487
100830.68144558444328
100846.27856945227541
100853.93875900037528
100850.34942348880577
100839.73288537256303
100830.05520895820518
100827.42633027420379
100833.76291830310947
100847.36493385421636
100864.70197530831501
100881.58764134394005
100894.64933327332255
100902.86516133592522
100907.77084407096845
100911.90233572888246
100915.74967226111039
100917.73428873439843
100930.77921116410289
100908.16937293960655
100875.88612720377569
100847.51247255672934
100832.22061654344725
100827.78113953438879
100825.31223360568401
100820.00023974225041
100815.48244010408234
100819.7165895907674
100834.54863258088881
100852.57567496497359
100863.21259507336072
100860.710377974523
100848.84436855524837
100836.87926848683855
100832.35796547842619
100837.75991294243431
100851.2853791108646
100868.81392108554428
100885.62945591291646
100898.30578942339343
100905.49156536492228
100908.36393953057996
100909.69632669443672
100910.56839926102839
100911.16955127015535
100910.62339004606474
100936.52844634890789
100930.81658315962704
100906.30770525433763
100872.04525176552124
100843.44676497507317
100830.61936793391942
100830.1669251187559
100830.50606113178947
100825.22006144144689
100818.87575103920244
100821.71398781517928
100837.37636602000566
100858.19950024079299
100871.2261044060142
100869.69985425737104
100856.74210798686545
100842.6562655151065
100836.44503319234354
100841.20927461507381
100854.77352061790589
100872.54718833293009
100889.40036445968144
100901.6101139367529
100907.84289647315745
100909.0305469178129
100907.60063017484208
100906.24150312454731
100905.94293320679571
100905.92498087098647
100905.40714558701438
100924.29042079517967
100936.66256211110158
100931.19708043269929
100904.80760843853932
100868.44357135576138
100839.51829742934206
100828.92993966474023
100832.09474504303944
100834.95861324464204
100829.6328335134167
100821.49145596929884
100822.87688328803051
100839.31731936012511
100862.62489681575971
100878.23042414082738
100877.33188335472369
100863.34969134550192
100847.3423324424075
100839.56547051030793
100843.87777515206835
100857.75640269936412
100875.7916335145128
100892.64016869220359
100904.50748862292676
100909.93321320737596
100909.46839293716766
100905.94190268164675
100902.67214580638392
100901.25547386432299
100901.73666777041217
100902.83778656656796
100903.63656870296109
100922.46791016346833
100937.24167474661954
100931.85020537531818
100903.75955065216112
100865.53862400767684
100836.26238595777249
100827.42518748558359
100833.46603474412404
100838.50617835493176
100833.05261034399155
100823.34042943952954
100823.4138678148156
100840.53250015783124
100865.86383261813899
100883.6078095351113
100883.41581777400279
100868.38004376379831
100850.72908717561222
100841.70251878690033
100845.68556300706405
100860.03745282211457
100878.52873765633558
100895.36580212099943
100906.89916427481512
100911.53669944714056
100909.954960706149
100904.85338400382898
100899.74068692603032
100897.59969063541212
100898.7096083733195
100901.05312198401953
100902.79477979734656
100904.54350295296172
100842.01727437009686
100869.2593394505966
100893.33754868681717
100905.99842858502234
100904.25141117023304
100901.02124151859607
100921.39323772930948
100937.91478224794264
100932.46278835555131
100903.1231804999552
100863.37880912271794
100833.78487214840425
100826.20356462195923
100834.39406641140522
100840.99094800491002
100835.37074220379873
100824.47527421843552
100823.69067114032805
100841.01611388464516
100868.14056371840707
100887.46083034640469
100887.7155873333104
100871.83299252670258
100852.79764268908184
100842.8738019962766
100846.65849069843534
100861.35726123330824
100880.20555215491913
100897.18876346450998
100908.50607126337127
100912.74378262758546
100910.41703470975335
100903.9481278470339
100897.68874185945606
100895.19281824537029
100896.71211352506361
100899.89561487804167
100902.31301139036077
100904.1351065023191
100908.43472613951599
100809.03450313545181
100843.63867471581034
100870.97340644779615
100895.09501481665939
100906.492588104069
100903.22799895521894
100899.35710190422833
100921.03938536161149
100938.54627895353769
100932.97310210163414
100902.87626135560276
100862.14381805708399
100832.36533533102192
100825.50693149041035
100834.92762164279702
100842.29258749220753
100836.57096401488525
100824.91489534104767
100823.70737284647475
100841.09439004051092
100869.27889178076293
100889.59266574306821
100889.80249733236269
100873.41468979135971
100853.68522273395502
100843.30848343730031
100847.05725212352991
100861.98866236519825
100881.09276280680206
100898.10939333363785
100909.40179947167053
100913.49983741833421
100910.6758048513293
100903.50358607168891
100896.75344094354659
100894.06772056521731
100895.74858265124203
100899.35244586439512
100902.07734944707772
100903.90391706879018
100908.03102795353334
100918.41339098106255
100726.67794663560926
100743.05801205168245
100760.18231136607938
100775.83660674370185
100788.12109370157123
100795.76033309569175
100798.2082125457091
100795.63233571419551
100788.60715679697751
100777.97884709623759
100764.77841982884274
101084.05919158388861
101065.82415474265872
101050.12870029188343
101044.37115426233504
101052.92083811525663
101075.12343378056539
101107.8249922770483
101145.1529418163118
101181.03638637358381
101209.72013537904422
101226.38770129310433
101228.60081964210258
101217.48292699137528
101197.18726421355677
101173.32625241581991
101151.09471543857944
101133.48248411450186
101120.812202261528
101111.52745311366743
101103.5861622649536
101095.20669570486643
101085.69549732476298
101074.94589002712746
101063.43297706858721
101052.41760200937279
101043.43414571166795
101038.39327275597316
101039.2768031401647
101047.33984253967355
101060.37509781226981
101073.39874572273402
101079.67400652123615
101073.91029735501797
101055.12527598779707
101027.02035696116218
100996.09973622065445
100692.57754671647854
100701.90038402860228
100706.72101012303028
100707.41686307021882
100705.32032441905176
100702.45250630444207
100701.06226361531299
100703.10159923056199
100709.75863127950288
100721.13438056969608
100736.21513086903724
100753.15404426355963
100769.73433984634175
100783.85949698000331
100793.9113723688788
100798.93989080957545
100798.65731651565875
100793.40668669756269
100783.87531723749998
100770.9444870846346
100755.78375407184649
101102.03345093099051
101082.74675675072649
101066.06582208660257
101057.71208194215433
101060.79015397526382
101075.4111724505201
101099.7845813921158
101130.16215046629077
101161.88882430190279
101189.03885812575754
101205.90197282416921
101209.32399370042549
101200.34604410458996
101183.42867113203101
101163.55758672652883
101144.07770513239666
101125.69004692001909
101108.13141642101982
101091.2969576157775
101076.42676742665935
101065.6452624075755
101059.80702985580137
101057.70337810779165
101056.44038251772872
101053.50232530053472
101048.35449672394316
101043.35801894390897
101041.9890568901028
101047.28353180944396
101058.35866037753294
101069.92419584315212
101074.86094769732154
101067.92755515413592
101048.89363112019782
101022.24574754125206
100994.42785984111833
100683.39106681352132
100690.70518688506854
100694.93323956210224
100696.48822540337278
100696.57416460549575
100696.91447849830729
100699.30443404319522
100705.13085965493519
100714.98873853833356
100728.48417623493879
100744.28490506595699
100760.43541015103983
100774.82283729032497
100785.63382708569407
100791.67789766025089
100792.50507535746146
100788.23072774164029
100779.43696149824245
100766.92934365868859
100751.60368071893754
100734.73978782061022
101092.80836980702588
101078.09237773487985
101069.75192197073193
101068.84629446016334
101076.13141919783084
101090.78535063531308
101112.15471269379486
101137.03201581197209
101159.94515407863946
101175.25351848162245
101179.46620660283952
101173.48422237792693
101161.30202840759011
101146.677003229197
101130.44744858842751
101111.59440885351796
101089.55080143667874
101066.67546300095273
101047.6400463697064
101037.16006341631874
101036.70108157971117
101043.47596806444926
101052.03055076042074
101056.51260423388158
101055.07733942032792
101049.6663500431896
101045.20545904287428
101045.46554788699723
101051.01255494453653
101057.75142278127896
101059.2328408312751
101051.13024848583154
101033.70351312580169
101011.11456051643472
100674.23046732909279
100677.46031009682338
100680.29139178112382
100683.73092317699047
100688.93154103690176
100696.86486017161224
100707.97326032114506
100721.96311350658652
100737.78982751218427
100753.81446490740927
100768.09300931426696
100778.77492766459181
100784.52523102682608
100784.7644646694971
100779.68016364872165
100769.96903747062606
100756.63765510202211
100740.69695465940458
100723.02664284192724
100704.9087610529823
101093.15919093004777
101084.84414010416367
101080.89400498101895
101079.70339920818515
101081.62287021829979
101087.09154495170515
101097.55117285210872
101111.8063279990165
101126.14215963432798
101135.93693195235392
101138.93992477160646
101136.06966816259956
101129.8393557016534
101121.7623559468484
101110.33154232743254
101093.2607987121155
101069.98005689894489
101044.93419950379757
101025.67427863595367
101017.4857889340783
101021.87366286799079
101035.24399089315557
101050.20635491287976
101060.14224442560226
101061.49195404264901
101055.80845890489582
101047.32143114066275
101040.59006487464649
101037.64379344698682
101036.23034784590709
101032.46023679217615
101023.56120607166667
101009.05477883327694
100991.64964355654956
100656.0609222878993
100658.64075443970796
100663.04983346856898
100670.16339957216405
100680.59249770660244
100694.46365200118453
100711.278656651848
100729.83215949185251
100748.32700805239438
100764.70162323310797
100776.977867907568
100783.62501036931644
100783.86909156882029
100777.80360875561018
100766.30745287092577
100750.65798768860986
100732.30279972293647
100712.60700906724378
100692.608588060888
100673.62400167701708
101087.01725897713914
101092.00538156249968
101095.17079610143264
101094.77286431475659
101092.34702796148486
101089.83553997220588
101088.74625720719632
101089.0383447859349
101089.74687093275134
101089.94928340268962
101090.12415232120838
101090.63949251205486
101090.14338917424902
101085.19481343631924
101072.98948061354167
101054.11227853037417
101033.20005830439914
101017.39524997751869
101012.3737789385923
101019.28645630129904
101034.09546756700729
101050.41675549959473
101062.05790390587936
101065.05813096807105
101058.86394857511914
101046.70885614899453
101032.43285022482451
101019.14537659822963
101007.93305496017274
100997.72024210626842
100986.74534889378992
100974.71601697691949
100642.05747629905818
100648.18746710754931
100658.3813142869185
100672.97628267467371
100691.56500437439536
100712.918815526049
100735.09525472446694
100755.66275905228395
100772.15784281902597
100782.62919191845867
100785.92686487831816
100781.77339723840123
100770.76569152419688