/*--------------------------------*- C++ -*----------------------------------*\
  =========                 |
  \\      /  F ield         | OpenFOAM: The Open Source CFD Toolbox
   \\    /   O peration     | Website:  https://openfoam.org
    \\  /    A nd           | Version:  12
     \\/     M anipulation  |
\*---------------------------------------------------------------------------*/
FoamFile
{
    format      ascii;
    class       volScalarField;
    location    "0.0095";
    object      p_0;
}
// * * * * * * * * * * * * * * * * * * * * * * * * * * * * * * * * * * * * * //

dimensions      [1 -1 -2 0 0 0 0];

internalField   nonuniform List<scalar> 
106891
(
100778.14050802563725
100771.14852273032011
100762.79899419681169
100754.76058791195101
100748.26888201198017
100743.99012630718062
100742.00913615335594
100741.95736167332507
100743.10199544255738
100744.76432545977877
100746.25379202865588
101249.38536389730871
101226.54633882995404
101193.71985854554805
101159.60601634558407
101131.7315415100893
101114.19890987020335
101107.53673441542196
101109.2332456063159
101115.27562315171235
101121.00167330580007
101122.82372299283452
101119.69468527362915
101112.21926853174227
101102.47088059782982
101093.06919763128099
101086.0741624601942
101083.26524540271203
101086.22494352987269
101094.64791356796923
101105.71998058141617
101114.26935241385945
101115.89446168426366
101109.37879797363712
101097.96934037131723
101086.48898287194606
101078.72366084654641
101076.08424041981925
101076.41291106233257
101075.8941624470317
101071.16820102685597
101061.40797900356119
101047.54329115443397
101032.50455646784394
101019.38993881626811
101009.59496614799718
101001.94586655571766
100993.65147010344663
100981.52134887853754
100670.03210458130343
100689.62195749083185
100710.4191338311648
100730.8736821753555
100749.30774390012084
100764.15951936840429
100774.24416760315944
100778.96431424636103
100778.44328562097508
100773.52151399124705
100765.64520590052416
100756.61450165045972
100748.23965584636608
100741.99283755602664
100738.77689784110407
100738.80185547730071
100741.68559365862166
100746.49991438434517
100752.09822711834568
100757.38100439748087
101217.17534175113542
101181.12174736330053
101145.56868080083223
101120.2429679564957
101109.19635707173438
101111.44936293255887
101121.42097441737133
101132.58422845324094
101138.06371898870566
101133.61106083955383
101119.09677362181537
101098.40736668363388
101077.8841271246929
101063.51474323426373
101058.78933476191014
101064.32308064910467
101077.56010404523113
101093.85891807901498
101107.43425862831646
101113.53706425968267
101110.59960540260363
101100.70145672012586
101088.44855425493733
101078.25456079060677
101072.50466604623944
101070.67722068530566
101070.06236250327493
101067.97693756727676
101061.96108406764688
101051.36976584157674
101037.77774552196206
101023.87233172789274
101012.73776600111159
101005.82736020327138
101001.47360325632326
100996.00375346207875
100685.17682120129757
100703.24453254196851
100721.18623725816724
100737.91889089878532
100752.30804409031407
100763.28845630916476
100770.03672439369257
100772.15500851933029
100769.80019005949725
100763.75433507213893
100755.35886094426678
100746.31474305359006
100738.39586815540679
100733.12749735872785
100731.49799426284153
100733.74562823635642
100739.40571894191089
100747.37366052993457
100756.1599146239023
100764.43757113124593
101204.82977927509637
101170.3087349923735
101136.87260924201109
101114.78750861287699
101108.56456367706414
101116.25019533013983
101131.42075767202186
101145.2411485335324
101149.32931290037232
101138.79332186678948
101114.58350577793317
101083.51784734864486
101055.63882415737316
101039.72212180787756
101040.42059609363787
101055.62739458777651
101078.00315870101622
101098.25759030756308
101108.79961978645588
101107.21764182744664
101096.18944673577789
101082.14052398057538
101070.71582844322256
101064.75040612927114
101063.28540805869852
101063.66613641459844
101062.25958545903268
101056.87103971951001
101046.88771130556415
101033.90283327799989
101019.94482645671815
101007.60687682537537
100999.99607906406163
100998.08025841068593
100999.48649521279731
100999.61048382901936
100711.35463734234509
100725.56689139574883
100738.32870653299324
100748.92904185528459
100756.65041168298922
100760.88268441257242
100761.29271754517686
100757.98764803246013
100751.62686132418457
100743.4066574335593
100734.93007098151429
100727.92163506669749
100723.89231176165049
100723.83162348771293
100727.9162888238352
100735.56339551480778
100745.52867087523919
100756.12538409211265
100766.02081751880178
101159.19057367515052
101130.87867494301463
101112.31546332547441
101108.48648192899418
101118.20952436277003
101134.95481560387998
101148.75622101681074
101150.61128587396524
101135.77486686514749
101105.98371266180766
101070.03539284384169
101040.56288967044384
101027.76244260849489
101035.16168371640379
101057.89572870236589
101084.61743726160785
101102.97070887255541
101105.53227672175854
101093.24253356500412
101073.66118164506042
101056.19371586661146
101047.39662885913276
101047.4821811402071
101051.62354906274413
101054.42702036186529
101051.36015424513607
101041.71452693940955
101026.93524062221695
101010.40879923572356
100995.61308675433975
100985.72969915930298
100983.16804467882321
100988.00696345762117
100997.35464601703279
100699.87732686195523
100710.436249308681
100720.09309853658488
100728.79457578540314
100736.23762487816566
100741.92272119892004
100745.30216940950777
100745.96497657627333
100743.81376307523169
100739.21106460686133
100733.01148463353456
100726.50251577694144
100721.17213915960747
100718.36479749459249
100719.00676921541162
100723.30155445876881
100730.74706119346956
100740.1949705034931
100750.02371857182879
100759.13184088094567
101144.89736566976353
101123.64794685937522
101108.62883160232741
101105.39626860404678
101114.06281681773544
101128.86214652068156
101140.30302547931205
101139.46419156178308
101122.41987694584532
101092.23565872973995
101058.92751396544918
101034.74164016786381
101028.72216434298025
101041.92219173790363
101067.09122695641418
101091.10746586193272
101101.92896413790004
101094.20992936880793
101072.03480448761547
101045.87396225362318
101027.04884727016906
101021.13840417040046
101026.67475863623258
101036.21212630155787
101040.81411267223302
101036.76725464468473
101023.54891711669916
101004.9940240734868
100985.9357439379819
100971.07503742871631
100963.86910073047329
100966.67472786006692
100979.12994839044404
100698.57711020731949
100703.6368466905551
100708.93461786028638
100714.52647787319438
100720.05590137568652
100724.86863281355181
100728.26528095439426
100729.7742997151945
100729.293924779995
100727.15947886556387
100724.12523568220786
100721.21435147168813
100719.44027882668888
100719.58635685134504
100721.92885147938796
100726.249098654298
100731.8602836864884
100737.62308691436192
100742.97060498996871
101110.60247334913583
101099.74898098630365
101096.23914844229876
101101.48825666004268
101111.3278059297445
101118.08974817895796
101114.20590513759817
101097.28191399323987
101072.18547495834355
101048.43435507113463
101035.2359781866835
101037.6662416280742
101053.94736243515217
101075.55883247560996
101090.93948402856768
101091.47673656631378
101074.87431354638829
101046.95218101004139
101018.60937208411633
100999.77902072822326
100995.10139258213167
101002.13584354351042
101013.64360747307364
101020.53991934136138
101017.33554681060195
101004.63228773151059
100986.49939421843737
100967.94052451680182
100954.21927385078743
100950.07321402795787
100957.86023769128951
100976.18152690789429
100676.39697285118746
100677.62996007576294
100680.9047333849594
100686.50076055515092
100694.07550567407452
100702.77009352885943
100711.45838219422149
100719.06916391484265
100724.84706916645519
100728.44295320755919
100729.93689227144932
100729.76936583787028
100728.53572005903698
100726.84081662193057
100725.09332633741724
100723.53789392366889
100722.23052731271309
100720.87188794428948
100719.69424132483255
101083.3011736611079
101079.47470296107349
101079.97083187381213
101082.28053722085315
101081.79483987568528
101074.47033411895973
101060.45879645815876
101044.95602307838271
101034.92771641908621
101035.22841607291775
101045.61237382954278
101061.58198275127506
101075.25310541150975
101079.64669808148756
101071.00285430991789
101050.64392339006008
101023.71132067897997
100998.00514658610336
100980.04283255744667
100973.25715735413542
100976.70001954703184
100985.65162648545811
100993.3714243847644
100994.81464785145363
100988.24788910149073
100976.08369853215117
100962.38831294678675
100952.54175530005887
100951.55950876818679
100961.69037229049718
100648.74797051739006
100651.93117666844046
100659.35051902019768
100670.58500277521671
100684.56693819230713
100699.78071480507788
100714.51959566297592
100727.27144949730427
100736.9670443116338
100742.96314847597387
100745.09245353759616
100743.61881367569731
100739.07987921111635
100732.07979496874032
100723.37496958038537
100713.78989587791148
100703.91652683344728
100694.86576570244506
101056.13328382818145
101049.637233710906
101041.66166144276212
101032.2966510092956
101022.28518458557664
101013.95389121053449
101011.38714754773537
101017.04413485513942
101030.01526156025648
101045.71785372588784
101057.57323974982137
101060.97057661465078
101055.29680000677763
101042.44419808711973
101025.94603584507422
101008.1982148065581
100990.34118908496748
100974.26350964806625
100962.37805768437102
100956.90033064002637
100958.92463899290306
100966.12079499020183
100973.72762979770778
100977.32933614929789
100975.96086453821044
100971.30640640946513
100967.2953268866986
100969.21434157901967
100625.43045631646237
100630.20544090536714
100640.4216147345287
100655.66324700131372
100674.71749660283967
100695.76805814780528
100716.67545222053013
100735.30006696158671
100749.87124824167404
100759.19755513298151
100762.64297388777777
100760.18262563479948
100752.39832798916905
100740.24397228840098
100724.94616758500342
100707.94847806180769
100690.61819042658317
100674.71168101411604
101013.48277802896337
100995.02459457899386
100978.40762238562456
100968.48011598770972
100968.60016697822721
100979.00771771035215
100997.16263730054197
101017.80805149802472
101033.08348993946856
101037.55846340861171
101031.87337026395835
101020.83830730545742
101011.46326536120614
101006.48618524892663
101004.19724263342505
100999.0521361042338
100987.06423507830186
100970.3052251272602
100955.06911079156271
100947.4819793170027
100950.40334132929274
100961.13142411729496
100973.62299600889673
100982.26729839976178
100986.22243738161342
100988.59708145791956
100993.14293124109099
100622.66126237752906
100634.899516481295
100652.35169743541337
100673.92882298452605
100697.82788940795581
100721.84103273450455
100743.59147177239356
100760.85891391074983
100771.96257505715766
100775.94898590380035
100772.574635125231
100762.35568502979004
100746.48427675483981
100726.68053123196296
100704.92801080693607
100683.16674113208137
100663.50894461921416
101002.17907165846555
100980.78489986622299
100957.67872777272714
100940.78719557046134
100935.87763117815484
100943.95281977331615
100961.80296107121103
100983.56494768313132
101001.64922917759395
101010.33819291970576
101007.99411451054038
100998.49369111604756
100989.829603369697
100989.38443342981918
100998.95460178243229
101012.29353787028231
101019.81954497787228
101014.63190887036035
100997.90748126700055
100977.95322089263937
100963.31924087752122
100960.00902458348719
100966.73516413780453
100977.98644278921711
100987.30197316558042
100992.57510036420717
100996.03392167111451
100644.92981606682588
100661.19434402778279
100681.19885888477438
100703.59990243012726
100726.48427642387105
100747.64723830512958
100764.86847023872542
100776.21913154800131
100780.38051102400641
100776.84318553497724
100766.01873918046476
100749.10878173612582
100728.03884200291941
100705.1968529670703
100682.9513884322223
100663.51551772509993
100988.15087984547426
100967.11610738422314
100948.2183550959744
100938.54019611868716
100940.58957079522952
100952.46543382249365
100968.62255791426287
100983.36154062036076
100992.21120177641569
100993.75678948660789
100989.00504375074524
100982.04191337840166
100979.5399677878886
100986.93520861375146
101003.59286355413496
101023.25097524136072
101037.04044540204632
101039.0117874743737
101029.27201862205402
101013.53600786616153
100999.86881709536829
100992.80335062691302
100991.23900935912388
100991.35904092920828
100989.55959360902489
100985.94126309918647
100983.37834441670566
100985.44735734350979
100677.74365165151539
100693.31338238035096
100711.22705088640214
100730.12959219426557
100748.23465449377545
100763.50106342913932
100773.94991789579217
100778.08979638273013
100775.18812797937426
100765.39787029918807
100749.85899894920294
100730.53742497660278
100709.86357212236908
100690.35142226330936
100674.22542542591691
100968.12632139970083
100956.70399473245197
100954.87461701405118
100962.11423796119925
100973.84051472354622
100984.57813175035699
100990.40817219992459
100991.40303364065767
100989.12151214649202
100985.59420411611791
100983.21670927134983
100986.12307335437799
100996.35050955048064
101013.30244395641785
101032.5489520328556
101047.41639257906354
101054.10465140592714
101051.97455487857223
101043.99400767277984
101034.72106390990666
101026.15869147147168
101017.56133229876286
101006.92467786814086
100993.57341487704252
100979.77979479389614
100969.64065645466326
100967.68713165531517
100706.44434197772352
100719.65277660297579
100734.31290388460911
100748.99745455135417
100761.88021341965941
100771.1010565853212
100775.10408439396997
100772.94103362743044
100764.59076344630739
100751.07764013268752
100734.29254730975663
100716.66206684340432
100700.75480207095097
100688.62847787039937
100979.23473627383646
100983.74023871752433
100992.74619913523202
101000.52130290315836
101003.46324873641424
101001.69929543360195
100998.50554688209377
100996.65278636752919
100997.17843890252698
101000.18845563090872
101006.0465832008631
101014.53811298598885
101026.51488502160646
101040.40693461688352
101053.23232255438052
101062.6173650885612
101066.9829303441802
101066.15169580125075
101061.05360688199289
101051.99578274026862
101038.63608792859304
101020.55246254996746
100999.39792220864911
100978.37556862729252
100962.44822892968659
100956.87425766920205
100730.51439702241623
100740.93632017508207
100751.9662759257335
100762.09972192524583
100769.68387234928377
100773.19620157660393
100771.6000882244407
100764.74983886444534
100753.52417338590021
100739.66011368115142
100725.43304142111447
100713.26871693582507
100705.07669463200727
101019.48071191839699
101024.92610456190596
101025.28309166932013
101020.42902277008398
101014.54275671794312
101012.14974790226552
101015.23162888552179
101022.36697937376448
101029.92538179540134
101034.91987055061327
101037.52667080691026
101040.28076295097708
101046.12380030372879
101055.42112911371805
101066.12367427698337
101074.98902645539783
101078.78986433167302
101075.74434969521826
101065.85311237178394
101049.89930688020831
101029.18661697712378
101006.28454622575373
100984.23221279711288
100967.56890755084169
100960.87051509812591
100751.21546312501596
100758.67517866908747
100765.86445901420666
100771.39265942751081
100773.88375558442203
100772.38781993313751
100766.68977564871602
100757.47689360207005
100746.20045323176601
100734.84837731379957
100725.67685736820567
100720.49092764726083
101055.83050260004529
101046.52932474241243
101034.83668718123226
101027.86293310340261
101030.22293753678969
101041.6171949266427
101056.12468748174433
101066.03480151828262
101067.06991578543966
101060.75909134156245
101053.03244759827794
101050.2544604405557
101055.53219136147527
101066.48236738432024
101077.75689751839673
101082.9960853963712
101079.71927726975991
101067.92139660548128
101051.15992904698942
101032.06276431516744
101013.16022210274241
100996.63829349956359
100985.04566164877906
100980.74337824105169
101065.9924178358342
101048.7065667626739
101042.49087204618263
101051.22648920534994
101070.99114873057988
101091.22647871293884
101101.62296358561434
101097.14132989583595
101081.58113522159692
101064.02945195818029
101053.83942196336284
101055.38082790060434
101065.59625086335291
101076.90613921089971
101081.85452707577497
101076.30920273069933
101062.7434284255869
101046.26781001426571
101031.31270955289074
101019.98030476874555
101013.02868846175261
101010.38674239520333
101011.86840619603754
101060.50977715715999
101074.23220125742955
101099.46677075847401
101122.70296395402693
101131.65975568136491
101121.90535874738998
101098.97896217576636
101074.14069466661022
101058.3789187384391
101056.42020834384311
101064.94095367412956
101075.01881124167994
101078.40439436295128
101071.68358148205152
101057.47985403504572
101041.91455796814989
101031.01653483154951
101027.2298054118146
101030.23214251757599
101037.78569583289209
101047.06347632898542
101153.70060115285742
101140.35401207693212
101113.47240274274372
101084.70369235203543
101065.00988735444844
101059.57584520656383
101065.32198681222508
101073.78824124345556
101076.777281946328
101070.7975130227569
101057.68693208735203
101043.65056969359284
101035.22457930743985
101036.13649510203686
101046.30878906394355
101062.52670641898294
101080.24569027937832
101074.05241467140149
101065.33076186575636
101067.79280370786728
101074.83670947854989
101079.03002423082944
101076.24572280497523
101066.4462822250498
101054.37840306584258
101046.53831931336026
101048.22896849931567
101061.23861429015233
101082.9650757227937
101108.05577820098551
101073.37191623098624
101072.64632145808719
101078.90884792928409
101086.04076320202148
101088.65234575308568
101084.22881860438793
101074.51489791068889
101065.67032088448468
101064.80575296498137
101076.3377740822034
101099.72202834782365
101129.67730392132944
100835.49846010975307
100818.45564657611249
100807.33302760733932
100801.66967727252631
100802.25750674620213
100809.98440455367381
100821.73490660349489
100830.70562316177529
100832.27281701621541
100826.75486805326364
100818.98313526889251
100814.6945242931979
100816.62860640663712
100825.30213528074091
100839.43746127608756
100856.62061451774207
100873.36521650523355
100886.79393801742117
100896.99549614211719
100906.38824195106281
100855.58115693877335
100834.71407516651379
100822.0125215050939
100813.76996827594121
100808.26049249921925
100807.49992183655559
100814.07842899752723
100827.1931095506734
100839.41364807517675
100843.72914112931176
100838.96788198914146
100829.55647798306018
100822.49171262379969
100822.15473699248105
100829.7357522490347
100843.64378550776746
100860.90037535774172
100877.66541201685322
100890.82229312999698
100899.88594533997821
100906.97360628024035
100914.19025823539414
100909.99969882448204
100879.6571156806458
100851.55653553655429
100833.79110131118796
100825.37145859318844
100820.09114756810595
100814.53985295265738
100812.09967432013946
100817.72877118374163
100831.63940585017554
100847.07084182626568
100854.30303777409426
100850.32842573995003
100839.56104643075378
100829.98101157235214
100827.58855981605302
100834.14804931615072
100847.87832741369493
100865.20196668671269
100881.93353993388882
100894.75900289100537
100902.75226780712546
100907.51947254218976
100911.58287175487203
100915.33786540827714
100917.15726203688246
100930.8265409762098
100907.76432110382302
100875.42441436109948
100847.411506099088
100832.58960672978719
100828.36273425773834
100825.83072583425383
100820.42588804737898
100816.02678874871344
100820.5861515073193
100835.61681443377165
100853.5137383533729
100863.70874387200456
100860.72047626269341
100848.63392281379492
100836.73746497463435
100832.4672847242764
100838.12476237260853
100851.78840723144822
100869.30200476787286
100885.94690062115842
100898.3605610113591
100905.2906764777872
100907.99359737758641
100909.2380320016382
100910.04054217685189
100910.58405947018764
100909.92865264194552
100937.20050491573056
100930.87695032490592
100905.88150133659656
100871.59082353526901
100843.44012036017375
100831.16710398024588
100830.94052915710199
100831.13414968385769
100825.65560683388321
100819.40235236329318
100822.60439279119601
100838.56297364777129
100859.27504390092508
100871.82171788599226
100869.74481977820687
100856.48644730757223
100842.44968886676361
100836.50721167532902
100841.55814242511406
100855.2743033778097
100873.02753563747683
100889.68653758699656
100901.61721971478255
100907.5690722057916
100908.54647611832479
100907.01741964572284
100905.65412669353827
100905.34464458144794
100905.27820585212612
100904.69316015139339
100925.42823620626586
100937.42429833898495
100931.26535435926053
100904.34494745824486
100867.98532044200692
100839.60073258067132
100829.64061493938789
100833.04062170759425
100835.67656674061436
100830.07273511250969
100821.98457106300339
100823.78600164334057
100840.59815547188919
100863.83985351190495
100878.91732459253399
100877.38950471083808
100863.05466770187195
100847.07903054448252
100839.58787197105994
100844.21579559474776
100858.26032961472811
100876.26029985530477
100892.90093202781281
100904.47326984547544
100909.59051581624954
100908.88525849649159
100905.27263942651916
100902.00901555818564
100900.62756354859448
100901.12404171627713
100902.18194980813132
100902.92222777579445
100923.7399904068734
100938.07229748275131
100931.91495648742421
100903.25762484646111
100865.07990698008507
100836.41195522996713
100828.26571103780589
100834.54347104117915
100839.30021305494301
100833.48491463383834
100823.80724430964619
100824.33824680720863
100841.89955980288505
100867.17761312080256
100884.37723932620429
100883.47941625196836
100868.036616038793
100850.41237951150106
100841.70130212043296
100846.02840819787525
100860.55620094829646
100878.9872025319055
100895.6053279806365
100906.82552049393416
100911.13381354931334
100909.3140029705246
100904.09544759464916
100899.00863709057739
100896.97401668326347
100898.13991883878771
100900.44593601436645
100902.10376987142081
100903.82348308736982
100842.5567119216721
100869.51749488500354
100893.21923668408999
100905.30480963672744
100903.21897808629728
100900.19375061745814
100922.76578476779105
100938.78942307755642
100932.52370477851946
100902.59092915245856
100862.90659737968235
100833.96942116059654
100827.13246709156374
100835.56741338733991
100841.8308665483346
100835.79187369426654
100824.92184101504972
100824.61695601048996
100842.4355601084535
100869.54284520234796
100888.27819589601131
100887.79040476067166
100871.44685768033378
100852.44176634967152
100842.85221795123653
100847.00305166981707
100861.88177818954864
100880.66828247960075
100897.4146556508349
100908.40719065320445
100912.31194798927754
100909.72296667250339
100903.12663153816538
100896.92540040772292
100894.56624774371448
100896.16791782368091
100899.31726160999096
100901.63842132712307
100903.41328415014141
100907.7935039204167
100810.14824231911916
100844.19466355838813
100871.23350132729684
100894.95280217872642
100905.74276144153555
100902.15804286098864
100898.53743205776846
100922.4679187485599
100939.44389165227767
100933.02779971204291
100902.32102802343434
100861.65490786092414
100832.5654837537586
100826.48064308862376
100836.14916725252988
100843.1545541104133
100836.98203207700863
100825.34344176696322
100824.63101058598841
100842.54022690055717
100870.73344810010167
100890.43665474667796
100889.85877170450112
100873.00799048070621
100853.30948685909971
100843.27793319965713
100847.40376844309503
100862.51852178160334
100881.55562201834982
100898.33117610456247
100909.29819914673863
100913.04979840721353
100909.94916470925091
100902.65599479351658
100895.97633650242642
100893.43570621672552
100895.21452855251846
100898.79026879282901
100901.41387010701874
100903.17870647962263
100907.38631482511119
100917.96204529880197
100727.02703874596045
100743.61447271806537
100760.84765813265403
100776.50644141886733
100788.70351973646029
100796.18925215989293
100798.4483686221356
100795.67621345512453
100788.46464386029402
100777.66815651247452
100764.31905976202688
101083.30804269389773
101065.0047716689005
101049.54147418522916
101044.25201002438553
101053.36093489344057
101076.04084020676964
101109.04706576914759
101146.45258385210764
101182.1915310358163
101210.50595135576441
101226.65614318365988
101228.33058194634214
101216.77760995499557
101196.24568411782093
101172.36632137450215
101150.2685044004902
101132.82818404790305
101120.2927492667659
101111.06169217353454
101103.09782958512369
101094.67305252495862
101085.13035971991485
101074.37445868113718
101062.88264357452863
101051.93224993282638
101043.07424452093255
101038.22904450606438
101039.37518819561228
101047.67863804350782
101060.82805396502954
101073.72492598563258
101079.629382467916
101073.36133321802481
101054.12300978522399
101025.77147207544476
100994.87183602848381
100692.75311621489527
100701.85956076427829
100706.44004048964416
100706.92902154976036
100704.71019421334495
100701.83721383522789
100700.56484997220105
100702.82368778447562
100709.75601954921149
100721.40424542059191
100736.69972111846437
100753.75818299003004
100770.34914236316399
100784.38529186706
100794.27330865824479
100799.09639898512978
100798.60163761183503
100793.16022110020276
100783.47631362512766
100770.43730490085727
100755.2069855685113
101101.10662181671069
101081.75804014918685
101065.25037045581848
101057.25515729562903
101060.77190706595138
101075.82174690332613
101100.53279408173694
101131.11242307406792
101162.8266531170957
101189.71365054577473
101206.12120191268332
101209.03151313036506
101199.6458829142648
101182.50545007518667
101162.58569482012535
101143.12193406122969
101124.74268155616301
101107.17461693908263
101090.36916632225621
101075.6152407075715
101065.03402113598713
101059.41287658970396
101057.44516944924544
101056.19999510061461
101053.19171138120873
101047.99138849900919
101043.06051204811956
101041.90211015741806
101047.46169152022048
101058.68237091183255
101070.13137298024958
101074.69616180332378
101067.27080674112949
101047.83285607975267
101021.00380096428853
100993.23467641990283
100683.42715226736618
100690.56894474200089
100694.63484094606247
100696.08337945751555
100696.15250704801292
100696.57872417078761
100699.14569915909669
100705.20524009385554
100715.30196573704598
100728.98848142370116
100744.89043457791558
100761.03236810069939
100775.3061169028806
100785.92488632402092
100791.73728933089296
100792.33187036926392
100787.85384501951921
100778.90526963312004
100766.29952105766279
100750.93249988401658
100734.07566943041456
101091.72526914659829
101077.14572726220649
101069.04154728149297
101068.42062969178369
101076.02291549633082
101091.00581186068302
101112.65741554078704
101137.64739258498594
101160.42602250185155
101175.37792981538223
101179.15104253168101
101172.82238736687577
101160.44465066902922
101145.71370480467158
101129.36761175574793
101110.37291736192128
101088.21233269885124
101065.39238509794814
101046.64187863311963
101036.58238551116665
101036.537027627317
101043.5398619123589
101052.0797031490365
101056.35539980026078
101054.69284418184543
101049.20148252854415
101044.86789588660758
101045.35017001644883
101051.04954190252465
101057.72181127443037
101058.9043574303796
101050.41038589880918
101032.6784997858631
101009.96632241400948
100673.98580285505159
100677.17043299414217
100680.02714351535542
100683.57508988215704
100688.95609190606046
100697.11052346158249
100708.43714893893048
100722.59732496413926
100738.5080928804382
100754.50647657984518
100768.64557358600723
100779.09670030501729
100784.56640988311847
100784.52414017406409
100779.20004361815518
100769.31717739890155
100755.88894999331387
100739.91866511876287
100722.27616864004813
100704.23320118644915
101092.18340147916751
101083.99155308686022
101080.14047381204728
101079.03969081417017
101081.09692479403748
101086.78990717437409
101097.50793568581867
101111.92296705086483
101126.23037593461049
101135.8272770876938
101138.56272593092581
101135.47704771824647
101129.1062619855511
101120.89146263526345
101109.24198644184798
101091.90794781173463
101068.45519359219179
101043.49596742069116
101024.62536942840961
101016.98864102129301
101021.87681687941949
101035.51019748736871
101050.40650007779186
101060.0563955866819
101061.06447727500927
101055.15959474477859
101046.65062414290151
101040.0574501730589
101037.24600775477302
101035.84658312026295
101031.93062689741782
101022.8035024349374
101008.09946574372589
100990.62006567105709
100655.68630069386563
100658.36366121839092
100662.94432119521662
100670.28754298973945
100680.9714029959141
100695.08069182401232
100712.07221856836986
100730.70212651029578
100749.15343969508831
100765.36657226695388
100777.38407252688194
100783.71302415353421
100783.62937857613724
100777.27746803763148
100765.57264808261243
100749.80675673368387
100731.423201073776
100711.7709706062451
100691.86939506744966
100673.02017492115556
101086.54760599019937
101091.48102570843184
101094.51354904935579
101093.99577357694216
101091.5546020357142
101089.1217608491279
101088.1457573864609
101088.52683888921456
101089.25636866915738
101089.45242274100019
101089.60022189587471
101090.07904696353944
101089.46898485158454
101084.24389547322062
101071.73923437099438
101052.68336831381021
101031.85663266650226
101016.41322868663701
101011.90413095230178
101019.27826167628518
101034.3023995996482
101050.56065767435939
101061.91606087746914
101064.53112890805642
101058.01193662366131
101045.69274992807186
101031.41716634055774
101018.2324081142433
101007.10983416030649
100996.91388882840693
100985.88164017365489
100973.79052349175618
100641.77168873921619
100648.17277987740817
100658.68071562754631
100673.58345662524516
100692.41682385661989
100713.90358011853823
100736.0702256665536
100756.48023548060155
100772.69841986060783
100782.82181784395652
100785.75173484942934
100781.25983334828925
100769.98699756599672