/*--------------------------------*- C++ -*----------------------------------*\
  =========                 |
  \\      /  F ield         | OpenFOAM: The Open Source CFD Toolbox
   \\    /   O peration     | Website:  https://openfoam.org
    \\  /    A nd           | Version:  12
     \\/     M anipulation  |
\*---------------------------------------------------------------------------*/
FoamFile
{
    format      ascii;
    class       volScalarField;
    location    "0.0095";
    object      rho_0;
}
// * * * * * * * * * * * * * * * * * * * * * * * * * * * * * * * * * * * * * //

dimensions      [1 -3 0 0 0 0 0];

internalField   nonuniform List<scalar> 
106891
(
1.1650391094000167591
1.1649799777460052574
1.1649101831693038367
1.1648424351978898805
1.1647886224250734166
1.1647521473266202463
1.1647362351901489053
1.1647355311316647253
1.1647461546207962257
1.1647589606609873858
1.1647754004432917529
1.1619468073054415314
1.1617782518025567828
1.1615376420386325229
1.1612579501906938884
1.16098208612646836
1.1607507579991074298
1.1605974571219370706
1.1605409034687670378
1.1605826826064387092
1.1607014425466053442
1.1608615949317633298
1.1610285805695250705
1.161171037717936283
1.161270156482837379
1.1613203632536910348
1.1613241525526103448
1.1612941739263407115
1.1612514143329839555
1.1612078673877679336
1.1611579192135044192
1.1610766754498587083
1.1609436100795063052
1.1607614441681333162
1.1605664248579790065
1.1604048454845201643
1.1603114535218075343
1.1602980061058754124
1.1603430598610016133
1.1604076984467566191
1.160454019726521846
1.1604641184924961994
1.1604361426540810154
1.1603882109578234072
1.1603438922105460129
1.1603157071291159141
1.1602954999086265708
1.1602596888411487175
1.1601779298436458721
1.1641496679686313964
1.1643117648981602397
1.1644836175070067963
1.1646524046158115429
1.1648041857760820239
1.1649262297379603392
1.1650085486270256308
1.1650467268648947439
1.1650412071611309095
1.1649998423919774027
1.1649336728096839622
1.1648585843121628258
1.164788536234104166
1.1647369231182398419
1.1647097167058249045
1.1647105722951132112
1.1647338484990910068
1.1647756646624016774
1.1648201575668659657
1.1648675679365092517
1.1617417236704474792
1.1615118271344484491
1.1612502156160220412
1.1610088496281767423
1.1608244307438815301
1.1607205256163009022
1.160697599197337393
1.1607447553280569874
1.1608294294449086337
1.1609146367095630747
1.1609736016538023673
1.1609989575714496635
1.161002691255867969
1.1610037023620785046
1.1610158850275222875
1.1610450861863901295
1.1610827230741775917
1.1611089801786684816
1.161095424341552107
1.1610193213455903827
1.1608797487156359285
1.1607015729288694406
1.1605273986827029375
1.1603963997161039767
1.1603297579948419482
1.1603232433970573911
1.160352460811588271
1.1603904720934259398
1.1604095972469923304
1.1603956737841563118
1.160353159268485479
1.16029788969233838
1.1602522074832692933
1.1602281868691532996
1.1602140538217078358
1.1601813335091071266
1.1642761555658711625
1.1644252188209174292
1.1645729448865442812
1.1647104212594006079
1.1648282726024121736
1.1649179446545063765
1.1649724678271202727
1.1649891413857345057
1.1649686344873391164
1.1649183429793772415
1.1648483293959033258
1.1647736377448518752
1.1647079730021028254
1.1646647170715176411
1.1646511467903555292
1.1646705569169260031
1.1647163882264879309
1.1647850268218387093
1.1648548691752511619
1.1649263655253576655
1.161664135358454697
1.161460400881850985
1.1612228660677319514
1.1610110959927679719
1.1608679704716962089
1.1608094222077276481
1.1608274315848559066
1.1608900008933622505
1.1609505567008497895
1.1609663509647243362
1.1609207690061877916
1.160833535330098254
1.160751200903845648
1.1607198825341236148
1.1607663573757787123
1.1608758086724508818
1.1610002024327088499
1.1610798191935556289
1.1610684542091449512
1.1609588773111139126
1.16078134915151443
1.1605934894200558016
1.1604447169409897178
1.1603607468090963994
1.1603358586424652454
1.1603491328298278784
1.1603692192987777876
1.1603732542238704983
1.1603486298463638882
1.1602993654842723714
1.1602338742714992659
1.1601679607965371677
1.1601254361762527445
1.1601161185815764831
1.1601244573918141345
1.1601165192339868426
1.1644924163758232361
1.1646088580324742701
1.1647130722778582523
1.1647992693666009423
1.1648618322265800185
1.1648955629220918429
1.1648983280003988305
1.164870341624798078
1.1648179815815888904
1.164749991095456183
1.1646805492739327192
1.1646229850222773461
1.1645901484991167951
1.1645898989361622711
1.1646244875862776791
1.1646861393158218778
1.1647717738367673324
1.164855476128556333
1.1649394518039237756
1.1613926193286234767
1.1612381636074944335
1.1610891198651431822
1.1609826972509540433
1.160935690721392799
1.1609404601624864206
1.1609633189719839041
1.1609630151608167914
1.1609067165007771472
1.1607881812218747708
1.1606424060701234779
1.1605338319217384235
1.1605177338863319481
1.1606118480481149025
1.1607813103122062159
1.1609484669154312986
1.1610304847693830865
1.1609820730778765974
1.1608203245599966191
1.1606104722233963056
1.1604289078541654145
1.1603277323129246312
1.1603084397933369765
1.1603330813968899538
1.1603597903323585872
1.1603524321962785937
1.1603031850249252432
1.1602185172802326196
1.1601188470906949046
1.1600256660679246767
1.1599604159178187324
1.1599416812336043048
1.1599722908557870138
1.160032750599793161
1.1643983122111738471
1.1644846293160606709
1.1645631805560829886
1.1646336701946344849
1.1646937248534934284
1.1647395625516960838
1.1647664959500227955
1.1647717415066947133
1.1647537639073861637
1.1647164448390365799
1.1646656182910379851
1.1646128026261632904
1.1645694136205517744
1.1645465882397521007
1.164552179599598114
1.1645882395238309481
1.1646474488974642991
1.1647290007706418979
1.1648053571604481959
1.1648818955648427842
1.1613716392680799583
1.1613115354780116917
1.1612128109961954436
1.1611106770572878766
1.1610331527386985595
1.1609844420892199146
1.1609421590355142317
1.1608732698535324523
1.1607587155631231557
1.1606085746995864483
1.1604701463274453843
1.1604032266204058477
1.1604494899200850089
1.160601942439348333
1.1608036834962003336
1.1609625796657716545
1.1609994718955951587
1.1608864019247013832
1.1606650451137443536
1.1604221475740059688
1.1602476085227331204
1.1601845734035391988
1.1602211191073810159
1.1602987463187424133
1.160346742144793053
1.1603343193790012222
1.1602526071768997085
1.1601249812031755315
1.1599824409749066589
1.1598575319515713744
1.1597774262668176792
1.1597654229900840051
1.1598259114366513689
1.1643860443653368808
1.1644266683219237635
1.1644691810604512749
1.164514190505515856
1.1645590825444798178
1.1645982422469074447
1.1646264613107055741
1.1646390675913718127
1.1646360443915606542
1.1646189111720242071
1.1645947631276802881
1.1645712571304887017
1.1645565828077042436
1.1645578323747471927
1.164577397008474291
1.1646101263966290862
1.1646600929259596224
1.1647023732021490883
1.1647471554170834018
1.1613210016961992288
1.1612522193583669772
1.1611359463260406688
1.1610166533261616628
1.1609146107530143865
1.1608207830501375835
1.1607083902243477969
1.1605666260803852996
1.1604204110661686666
1.1603187039981963657
1.1603057411952084621
1.1603995243355258449
1.1605748633404004977
1.1607643666116693737
1.160884347315482179
1.160877007539405259
1.1607320761183832492
1.1604991079501769669
1.1602642353387004892
1.160104771268225754
1.1600577809167493815
1.1601068706525143881
1.1601991273526301995
1.160265340505350018
1.1602607386637786568
1.1601839233438835386
1.1600570076181428991
1.1599088306682288074
1.1597739934184096988
1.1596896197021528963
1.1596808759358385732
1.1597476338606100832
1.1642024516904438958
1.1642116731276996866
1.1642377485397039649
1.1642830879798145016
1.1643451377060700658
1.1644165508937125431
1.1644885514359424317
1.1645515163582516038
1.1646000014054811444
1.164629929477907444
1.1646428346929584841
1.1646416628941724802
1.1646310940916801968
1.1646169653150022505
1.1646026900728265741
1.1645867644703224997
1.1645798851121247353
1.1645637050537818169
1.164554375966476929
1.1612018643709440813
1.1610686701844183943
1.1608993937295437604
1.1607250294348432362
1.1605573821914696442
1.160395362544520248
1.1602480348768640095
1.1601446297717161737
1.1601176242823929563
1.1601821690182081426
1.1603197104566180808
1.1604879463800545913
1.1606261277505640628
1.1606850153828234262
1.1606403341947191254
1.1605043572985760392
1.1603152262417717466
1.1601302922249583371
1.1599980725182388319
1.1599464177477798454
1.159972302549481693
1.1600443664861366244
1.1601131750516284757
1.1601379833340248471
1.1600987176571675441
1.1600044443440022945
1.1598769275133180567
1.1597523441873365257
1.1596708543215317189
1.1596577555084632838
1.1639727230170606731
1.1639981836137973659
1.1640586438248810008
1.1641508682013224085
1.1642657757814085517
1.1643913536764269878
1.1645127931136352029
1.1646183925010835658
1.1646982581268645607
1.1647479769085833379
1.164765567737625851
1.1647530431159716091
1.1647156213740561537
1.1646584813843867678
1.1645841317873417697
1.1645094550799741651
1.1644241766709242381
1.1643501164016201166
1.1610094162544704055
1.1608029877714076683
1.1605405539018553984
1.1602736651481364571
1.1600472219471247293
1.1598974819635567979
1.1598535633922892885
1.1599173180360948798
1.1600595949337753066
1.1602269114187619969
1.160359326307262906
1.1604217213493837058
1.1604155522117458599
1.1603610012769969284
1.1602863247001915514
1.1602048834628251317
1.1601170520715609058
1.1600307214089724539
1.1599627446432430045
1.1599338551947482312
1.1599589091303352806
1.1600241498206451674
1.1600915788696104514
1.1601199978499605603
1.1600915972141270238
1.1600094250400774243
1.1598989507818837641
1.159804413515146182
1.1637801916836767457
1.1638187948670277727
1.1639022465406536622
1.1640273068522080102
1.1641837050552912292
1.1643569394053516763
1.1645287421459509236
1.1646822421552607274
1.1648019326972141041
1.164878868775043097
1.1649072578741141992
1.1648869283456582124
1.1648230870664437742
1.1647242115842069143
1.1645964350063284787
1.1644610047259014163
1.1643157845876752621
1.1641856431990413867
1.1606368987747615051
1.1602893695104183891
1.1599404781123017205
1.1596723683856740017
1.1595365485758677426
1.1595386521662973678
1.1596473232383663898
1.15980451570983778
1.1599347562066921746
1.1599903055200384561
1.1599798149438627082
1.1599480848640115749
1.1599544498961147365
1.1600164048262899819
1.1601083599583419392
1.160170227440217916
1.1601570748889906692
1.1600801904314550494
1.1599931966706868991
1.1599536892626993723
1.159992782876994255
1.1600911945917513624
1.1601950116787811407
1.1602478584500981462
1.1602307070672048805
1.1601607501825232927
1.1600688045763170031
1.1637574054576271809
1.1638574665206773417
1.164000517836807802
1.1641773524802871975
1.164373566956224515
1.1645704428293541799
1.1647491359691801716
1.164890633375202933
1.1649819342065101946
1.1650146447819966777
1.164987090572702666
1.1649033083034905367
1.164774369989168612
1.1646102468679746522
1.164435394893422071
1.1642550297334568477
1.1640942845509081316
1.1607623273446501244
1.1604392083026857652
1.1600430612943373188
1.1596832630633628902
1.1594442832889590989
1.1593558881800489768
1.1593963981060786406
1.1595104770812185713
1.1596248682181675704
1.1596849183772501846
1.1596761064758323023
1.159634538340283072
1.1596310156350535525
1.1597272489060772571
1.1599317243675026923
1.1601802251760040541
1.1603779758578121051
1.1604541481959216309
1.1604102757223320186
1.1603138417784355507
1.1602394324839471196
1.1602410593215903845
1.1603089139439102251
1.160392243670700152
1.1604277195218311025
1.1603874325203082929
1.1602843435363356939
1.1639421462312444788
1.1640752856741614085
1.164238925524601953
1.16442241992119766
1.164609613156629031
1.1647830441866071638
1.1649238814821794019
1.1650170131655495087
1.165051001201468539
1.1650223347446053701
1.16493336054609542
1.164795994388384992
1.1646218030853321412
1.164436883127394351
1.1642533319492038846
1.1640942499817099609
1.1607485461185300668
1.1605085285649348048
1.1601932725784840361
1.1598970457070749696
1.159679705739428579
1.1595572399691569387
1.1595035341039063859
1.1594806238094379491
1.159454874637943611
1.1594167079848309854
1.1593775325737991633
1.1593736574168467257
1.1594589785555391437
1.1596704926454282081
1.159987651440677503
1.1603377267927024175
1.1606252850431357793
1.1607834478684995183
1.1608043357554189701
1.1607364574775511645
1.1606549422834417928
1.1606072821075406054
1.1605895284339990958
1.1605669892175012325
1.1604994467279898807
1.1603752469844941242
1.1602106591211487352
1.1600380657141728946
1.1642125502563722694
1.1643396055915211651
1.1644860971310990738
1.1646405449888013184
1.1647888709588811729
1.1649138176105520159
1.1649997483923550945
1.1650336997200771982
1.1650106062819896025
1.1649299519070779318
1.1648037849001131594
1.1646440699481381831
1.1644756718321145339
1.1643149129587260227
1.1641826022069901025
1.160490378502426756
1.1601997087164410694
1.1599438383387585816
1.1597562268280900977
1.159624862020409708
1.1595169000159666339
1.1594037445386986551
1.159288133539357446
1.1591886645200952799
1.159131918642191339
1.1591476777160187872
1.1592742387920724756
1.1595221714813574998
1.1598686264169673077
1.1602506190567478672
1.1605849248618080871
1.1608177572806972488
1.1609329478289946991
1.1609564790777291421
1.160935414819409317
1.1608961383076557006
1.1608356919715778766
1.1607307636224422076
1.1605618059463564951
1.1603334697259184427
1.1600735920360685238
1.1598272518113801333
1.1644475369943083631
1.1645552911409735586
1.1646749592466199008
1.1647953343257586578
1.1649009740808704549
1.164977121954831718
1.1650101927706084659
1.1649935522311456459
1.1649247287055595201
1.1648152347879960899
1.1646766203166925013
1.1645323783042675903
1.1644015913522345329
1.1643020378388126979
1.1603431011742646461
1.1601292113084589186
1.1599527437318220002
1.1597878468517228701
1.1596146693602453759
1.1594373443316596806
1.1592854801797112252
1.1591886762529284294
1.1591666602744654657
1.1592318700448838165
1.1593928109534525905
1.1596417569925849822
1.1599663068134671295
1.160324244447755504
1.1606597501299651398
1.1609289919517404854
1.1611079613328534332
1.1611979843041906335
1.1612177784762476307
1.1611807430698573018
1.1610869541756159151
1.1609248678515911024
1.160691941841066388
1.1603979723087236575
1.1600756563438292535
1.1597748082572063577
1.164644543158293688
1.1647295276418196952
1.1648200467555733795
1.1649033257761176596
1.1649662138128951128
1.1649953381784725615
1.1649835227561602391
1.1649269117378691085
1.1648361300394194373
1.1647217447069864171
1.1646048610347445873
1.1645052184646011995
1.1644381512011146018
1.1605211837139355335
1.160294063457460112
1.1600365537418781958
1.1597633241094893464
1.1595194185894321937
1.1593517983002490368
1.1592879016650701196
1.1593277414932006142
1.1594500371419673712
1.1596305185274957683
1.1598588238614671031
1.1601319471454605292
1.1604425296445473048
1.1607623011993501994
1.1610515831464292003
1.1612742172906118654
1.1614070265474856214
1.1614457798470549932
1.161399888075741238
1.1612774155349476768
1.1610807131435101347
1.1608156626451326954
1.1604926650724129988
1.1601432794322450448
1.1598135422316651066
1.1648149880213714003
1.1648764375209195165
1.1649357830768065636
1.1649819487180232969
1.1650027125525623806
1.1649917663071580609
1.1649444519432943235
1.1648700127029385509
1.1647769825365648089
1.1646831965475392678
1.1646083189636335931
1.1645660433518723043
1.160570555886849764
1.1602172424926144867
1.1598634845281454719
1.1595828234773515319
1.1594283298064318455
1.159413609489197805
1.1595049828622983057
1.159648641200051955
1.1598085984544785898
1.1599830455636070958
1.1601935325307399793
1.1604578051503506853
1.1607677281817527781
1.1610793510724879418
1.1613386726506411684
1.1614969904079015528
1.1615449249461951009
1.1614922800940954417
1.1613693573068812892
1.1611881376845194502
1.1609526394304092722
1.1606647721434071308
1.1603391964560976213
1.1600048753170015825
1.1604643270210122097
1.1600214809236963909
1.1597076426012391526
1.1595772802741699525
1.159618827974617572
1.1597613728639999398
1.1599267666064545512
1.1600668952633146347
1.1601915765397392555
1.1603423688617175991
1.1605582852918787662
1.1608414200292762608
1.1611448123014640466
1.1613999700266821602
1.1615529886541475779
1.1615838779945502068
1.1615243024089585422
1.1614176071104764798
1.1612886916112605817
1.1611338279081180325
1.1609372410573881584
1.1606859664617421579
1.1603842227249283603
1.1599423081957265236
1.1598134710809471226
1.1598630077906950664
1.15999842307099299
1.1601272135833833321
1.160208036570969492
1.1602671286766825798
1.1603656386449161531
1.1605558303477083726
1.1608397833825117029
1.1611622537692225521
1.161436054059795886
1.1615943775664643312
1.161620886153526877
1.1615514402735065413
1.1614448061685280766
1.1613470572340502951
1.1612628559464328593
1.1611682071112507941
1.1610274649447542838
1.160814204868242383
1.1601641136064220206
1.1602401521630480996
1.1603046078637877514
1.1604130329073860661
1.1606103059093912933
1.1608972453248025403
1.1612179933663588915
1.1614888991281011599
1.1616450814742909081
1.1616717422460940412
1.1615998891273198179
1.1614892362069604292
1.1613898257989363483
1.1613176299241363409
1.1612534172127153553
1.1611579986559210642
1.1609953889679531791
1.1603389277637312649
1.1606327296850902364
1.1609658394414583693
1.1612667738270647799
1.1614771673150212639
1.1615781214774703045
1.1615854478937623906
1.1615445716305368151
1.1615002172077151243
1.1614744684812663422
1.1614568280264880862
1.1614093176794262341
1.1612900263027066128
1.1606026267478646297
1.1609412808096726266
1.1612747818008390954
1.1615456621622421984
1.1617183641518948889
1.1617875924653797703
1.1617783590348984557
1.1617387639912923891
1.1617098439882516114
1.1617021743464994721
1.1616894004709590327
1.1616224341599097336
1.1627399435392029581
1.1629074300280195509
1.1631509808111171189
1.163437057622041193
1.1637306416797452702
1.1639900622288663623
1.1641428801597899501
1.1641025711035406509
1.1638308758158975031
1.1633676420768919169
1.1628215601201317142
1.1623221132044345705
1.1619631237387444411
1.1617886160596555545
1.161787290183569743
1.1619026371989258362
1.1620491185752521712
1.1621468283768359164
1.1621607084263061438
1.162108499562955144
1.1625318590514328587
1.1625778092204193115
1.1627433355063558906
1.1629896826342189797
1.1632826879807065534
1.1636048042748321496
1.1639305841531077945
1.1642010757016123534
1.1643100339303298352
1.1641773764599290253
1.1638057952191578348
1.1632807490348286983
1.162734450716941037
1.1622826659951208672
1.1619977660187974511
1.1618961658384274749
1.1619446729413822617
1.1620711105852978839
1.1621924921653314922
1.162250609003329771
1.162231159688610127
1.1621552003850950108
1.1626473617844084174
1.1624594262544669654
1.1623448342623929896
1.1623722499076443171
1.1625366344976357791
1.1627835267927932872
1.1630686605435824887
1.1633879954626813458
1.1637366064868197579
1.1640636241943167484
1.1642655758644158137
1.1642332360617284603
1.1639425263490961182
1.1634641008282129437
1.1629252340417637335
1.1624491431717089984
1.1621175186491514708
1.1619594457750310745
1.1619558305421178179
1.1620487775233234728
1.1621630387116319572
1.1622353654132711043
1.1622355678100362297
1.1621697815627991535
1.1620624714945497757
1.1619514326299775764
1.1626035566964336709
1.1624571095681386357
1.1622902859229544692
1.1622071676980116894
1.1622745963673597469
1.1624623725647245109
1.1626817236861139992
1.1628711980566011075
1.1630321580001665716
1.1631971806792669177
1.1633498738834751052
1.1634100990908768924
1.1632908950761009503
1.1629677693441446973
1.1625130781061401297
1.1620519987197202028
1.1616929551551136157
1.1614890433238453937
1.1614377561476332268
1.1614956020969413597
1.1615968594740833097
1.1616798408242507978
1.1617057313278722486
1.1616725741436013664
1.1616119239417590503
1.1615589094092806377
1.1615493154978024926
1.1616026952109852477
1.1621542490613725462
1.1621941035298233302
1.1620976467932344622
1.1619256029913016537
1.1617849812149245725
1.161735044160695729
1.1617266531240810767
1.1616543705925641561
1.1614697220495719954
1.1612271095839183932
1.1610345720879293729
1.1609468285575446078
1.1609216041728236402
1.1608655952368511777
1.1607252415715725302
1.160517657118709467
1.1603134446199767638
1.1601753713497306997
1.1601275389349139378
1.1601617702621038752
1.1602562442473236537
1.1603816172213248237
1.160509756320993624
1.160617808320592026
1.1606898876233191498
1.1607179772302755882
1.1607005103966676618
1.160633126580099983
1.1605121408507925729
1.1603466403335336299
1.1608492437065369707
1.1608587243276105028
1.1607149734671720065
1.1604022396298321329
1.1600242379382814661
1.1597331009550524428
1.1596156623879181335
1.1596211950744281793
1.1596181962600025095
1.1595309118004817339
1.1594002200440012285
1.1593312970395173167
1.159375915311681382
1.1594728754788561353
1.1595061827290824574
1.1594047250151675588
1.1591964866829898018
1.1589737478837787155
1.1588261348113735316
1.1587932023208378229
1.1588602228512623338
1.1589830661118571964
1.159111283222073796
1.1592032041521569408
1.1592365496096992405
1.1592094667079724246
1.1591434684144308331
1.1590661603910554778
1.1589924526826462792
1.158925041454316851
1.1588563570706726935
1.1587834444804077094
1.1601487100435117217
1.1602063653975061008
1.1601059293161553043
1.1598337917297232291
1.1594954878580383539
1.1592426559355974991
1.1591595564258827533
1.1591908961264079103
1.1592030144792511148
1.1591214531431417445
1.1590030441135241723
1.1589662351869933765
1.1590705808793968501
1.1592433096507612778
1.1593579311189778913
1.1593339580964916458
1.1592001581624387097
1.1590553211240373077
1.1589862603976486266
1.1590223066255056494
1.1591368867233191597
1.159277413913917254
1.1593986416209109969
1.1594746327342262404
1.1594968930003943797
1.1594747843670278886
1.1594316650008791303
1.1593953624749742115
1.159387267701186941
1.159405889792127109
1.159432623223573211
1.1594525817363774411
1.1594726279875569031
1.1632217940617182173
1.1633841714817700908
1.1635215028802168291
1.1635684972215638577
1.1635023977831024933
1.1634273994958375109
1.1616204152699833863
1.1617482142508508414
1.1616949707721413443
1.1614486166737598705
1.1611227226427387471
1.1608851804996511703
1.1608292491798968271
1.1608992808744522662
1.1609525832954179503
1.160906204843461742
1.160821377614251082
1.1608243811882228425
1.1609773641579326231
1.1612079561865822352
1.1613712516462630919
1.1613779846041389909
1.1612555098285060051
1.1611119439866379732
1.1610463983211676275
1.1610943524117560699
1.1612309119750072739
1.161399927006445898
1.1615525999136160351
1.161658696780624167
1.1617075235310703185
1.1617040643825631285
1.161668579093223741
1.161636884901985356
1.1616369793856848869
1.1616697872534327285
1.161715707631269856
1.161755574972116678
1.1617918755687053345
1.1618503256515011479
1.1657221418605010488
1.1659715211535854884
1.1661637891522984578
1.1663292023329865366
1.1663885911290488018
1.1663296781372030075
1.1662701530378543069
1.1657961823660527578
1.1659364941085490486
1.1658848698300401381
1.1656343044395138797
1.1653026815652971493
1.1650668067718341625
1.1650202688904165438
1.165103242848321452
1.1651644513918497648
1.1651177091442355138
1.1650264805371890464
1.1650252629746962185
1.1651771537576243176
1.1654137313989358926
1.1655809951337352537
1.1655822096825194656
1.1654501453093468744
1.1652946862358872782
1.1652183147837142929
1.1652578803204771685
1.1653875420719357336
1.1655494527977503516
1.1656929634040014143
1.165788987349936523
1.1658258931350702348
1.1658065989069164026
1.1657528908447924998
1.1657043247958691623
1.165689978882753719
1.1657114195463273987
1.1657478379307690819
1.1657764566219035451
1.165797913158789223
1.1658394313658666519
1.1659335162703006183
1.1646170996416775889
1.1647532941540408302
1.1648949962579100426
1.1650232695953512962
1.1651236850100261666
1.1651839213556549613
1.1652025816089839338
1.1651788362133190802
1.1651197163501434417
1.165028527198862518
1.1649225605071320544
1.1605654378432126439
1.1604423646881054655
1.1603325255897734003
1.1602682066607352684
1.1602793005322027398
1.1603776792061430978
1.1605703520586521105
1.1608440555322285803
1.1611732583304599231
1.1615159334670757119
1.1618186370947729547
1.1620332242862025929
1.1621345689347097885
1.1621248204359058143
1.1620269088270556157
1.161872499145467641
1.1616876416272154948
1.1614869764063897595
1.1612756434681674733
1.1610564101669587078
1.1608325901057265916
1.1606126236657434703
1.1604058069903757655
1.1602231242693636926
1.1600797110224505548
1.1599904052791223386
1.1599700434384876413
1.1600305300356696936
1.1601739095817271696
1.1603717445818129139
1.1605723711048034907
1.160712096990216935
1.1607425493161831476
1.1606538620978354981
1.1604759609023860278
1.1602611753992819743
1.1643339750468486571
1.164409125075711815
1.1644470612946169474
1.1644513127575173428
1.1644332554262923907
1.1644097037601428557
1.1643993528637379686
1.1644178183137889881
1.1644750780604216089
1.1645706764359473606
1.1646968130993087254
1.1648370174679532063
1.1649735361068735973
1.1650887339111741792
1.1651701229088209377
1.1652086831347447937
1.1652048555954777065
1.1651588379818256236
1.1650799773016788929
1.1649698805757244813
1.1648482750788677897
1.16076246329377053
1.1606584806072051119
1.1605560653278768068
1.1604723294881376106
1.160429391391871512
1.1604509259079265338
1.1605602071468867909
1.1607643825725797448
1.161048704601935766
1.1613672936049801443
1.1616567224138973913
1.1618620652721083353
1.1619593279559878862
1.1619566832271044365
1.1618759616055915895
1.1617367951152457461
1.1615485503424654024
1.1613209958223327245
1.1610696512218607879
1.1608212640629040902
1.1606072452216851243
1.1604450745267540501
1.160332360525427875
1.1602513638586966493
1.1601860423628185259
1.1601347945323574606
1.1601165961774484447
1.1601554123226993642
1.1602675025602764425
1.1604347252697759796
1.1606034588700635535
1.1607085837312942633
1.16070452891045095
1.160590124878317031
1.1604036984707106761
1.1601984618440022157
1.1642573301770484662
1.1643164444733735685
1.1643501890320184788
1.1643623055825242929
1.1643629861820454785
1.164366479394081999
1.1643876427891848291
1.1644373342307245967
1.1645206520912261272
1.1646330618673947921
1.1647643074747475733
1.1648970893097139179
1.1650146614732996841
1.1651020392010427162
1.1651499302907133426
1.1651540502823138912
1.1651177436700310697
1.1650426305668866167
1.1649404840507078251
1.1648108666799066313
1.1646754343849430313
1.1608292765229537569
1.1607592116693861151
1.1606793838430793375
1.1605945303886582298
1.1605362910452297065
1.1605409663524699493
1.1606464263863014441
1.1608537400723368815
1.1611216203004983694
1.1613847663315328695
1.1615816978779112123
1.1616847627009674326
1.161698801358059141
1.161639635351410238
1.1615127718712294769
1.1613191310571724379
1.1610683478915078126
1.160794682914294329
1.1605475037978454367
1.1603717780609958954
1.1602832710696939778
1.1602622098052852717
1.1602688776341634203
1.1602618470194137057
1.1602324730223865235
1.160199773916844368
1.1602015781500882863
1.1602603906968955716
1.160369531592827963
1.1604844410870620575
1.1605449604832847044
1.1605133904593183392
1.1603935450199451829
1.1602225693665209061
1.1641795308489466532
1.164206061772633749
1.1642297705512663075
1.1642590521607834031
1.1643032873329433041
1.1643704200489690681
1.1644634691501130064
1.1645802950286643362
1.1647111105427405686
1.1648433302076746099
1.1649598246193246798
1.1650461617925347291
1.1650915316198813265
1.165091352564690208
1.165047185026395038
1.1649667204157037048
1.1648544981061019765
1.1647254214498123925
1.1645767389608090436
1.1644307850521249392
1.1609120300730637609
1.1609238071380911794
1.1609010647064421651
1.1608196289565226866
1.1607041455977289424
1.160602175295738725
1.1605736460856979075
1.1606440604447525455
1.1607955181350111395
1.1609786834209145923
1.1611460378835907203
1.1612695176499390204
1.1613383544575439643
1.1613456155886059395
1.1612742955250658916
1.1611135079240526569
1.1608727357623986887
1.1606026888499012539
1.1603752174785570972
1.160238585357880714
1.160207570948544209
1.160255523479155837
1.1603266166907439949
1.1603734911034131461
1.1603727328772937
1.1603392819873679098
1.160304445162109177
1.160296963400985204
1.1603216786530494709
1.1603497426626481204
1.1603431545867757269
1.1602788798443262053
1.1601570633148745593
1.1600057105000880497
1.1640284132744231904
1.1640508520953531946
1.164088823451515875
1.1641493933114550607
1.1642373071020157838
1.164353481061286999
1.1644931854983369135
1.1646468548242692176
1.1647986724438104122
1.1649328147334907513
1.165032023118003357
1.1650846622815529408
1.1650846617476382505
1.165032673761416282
1.1649363970272936797
1.1648077740129449964
1.1646544850315929676
1.1644957349147704306
1.1643281125302431533
1.1641745120024031834
1.1609792255207642686
1.1610443896991047286
1.1610072582737496205
1.1608725142193137003
1.1606958053602947079
1.1605421152365060777
1.1604615728570095712
1.1604690220971669579
1.1605472577981104099
1.1606623468065715432
1.1607851250670933041
1.160890343111469436
1.1609500772396095236
1.1609328538966003919
1.1608247100239481586
1.1606440793704404513
1.1604414965146827576
1.1602823707289855459
1.1602140942822247727
1.1602436673273122114
1.1603360128955246822
1.1604407071086604297
1.1605122743301305999
1.1605248856522747403
1.1604787619905632123
1.1604000216061090001
1.1603137848857529857
1.1602352072248258708
1.160162352358257376
1.1600793553661257196
1.1599705948293665969
1.1598384324589039451
1.16391509790066916
1.1639680060634367553
1.1640545225378453598
1.1641770250419711807
1.1643319409677670428
1.1645085145903846247
1.1646911830996127257
1.1648590674121270805
1.1649932503958038144
1.1650769123062028054
1.165101696047535329
1.165065595795838238
1.1649731328140906506
1.1648364418369860918