/*--------------------------------*- C++ -*----------------------------------*\
  =========                 |
  \\      /  F ield         | OpenFOAM: The Open Source CFD Toolbox
   \\    /   O peration     | Website:  https://openfoam.org
    \\  /    A nd           | Version:  12
     \\/     M anipulation  |
\*---------------------------------------------------------------------------*/
FoamFile
{
    format      ascii;
    class       volScalarField;
    location    "0.0075";
    object      alphat;
}
// * * * * * * * * * * * * * * * * * * * * * * * * * * * * * * * * * * * * * //

dimensions      [1 -1 -1 0 0 0 0];

internalField   nonuniform List<scalar> 
106891
(
9.2963914851906755593e-06
9.288500074343051033e-06
9.2796025486126152923e-06
9.2725918262079141404e-06
9.2641870785172009546e-06
9.2571633923006283449e-06
9.2483699688248649826e-06
9.2408559434000823188e-06
9.231401621203492983e-06
9.2232475760075968815e-06
9.2125009854256628217e-06
1.1975534661780799417e-05
1.2004358378769552514e-05
1.2018305848549764851e-05
1.2021450319039277661e-05
1.2018099557301582008e-05
1.201094873009535983e-05
1.1998030533935478278e-05
1.1969268729541886228e-05
1.1909936435914516298e-05
1.1850814441847361041e-05
1.1802551701563294173e-05
1.1766590699280192104e-05
1.1741658991848782662e-05
1.1725465091115924409e-05
1.1714580514265220284e-05
1.1706684782684234207e-05
1.1702655486341426576e-05
1.171152160875242704e-05
1.1754268094838114475e-05
1.1808554921747273813e-05
1.1851112291889400404e-05
1.1880767795779401594e-05
1.1897494068722752134e-05
1.1904316471532321061e-05
1.190638542612817844e-05
1.1909520345440218766e-05
1.1916091406862309705e-05
1.1925592178266269052e-05
1.1936591729911445728e-05
1.1948805553641569837e-05
1.1962275180389187051e-05
1.1978765760431469133e-05
1.1998871806355699643e-05
1.2023828556752740192e-05
1.2052580542347834456e-05
1.208420998554246655e-05
1.2116502813897106879e-05
1.2146739491182136113e-05
9.8807259289963548382e-06
9.8684556682824094213e-06
9.8579180490189504847e-06
9.8457952854252236443e-06
9.8352336634559359298e-06
9.8231644878399770117e-06
9.812858391271317402e-06
9.801153821283706437e-06
9.7915211335194045009e-06
9.7807205241172070494e-06
9.7721530165407145336e-06
9.7623963157291210779e-06
9.7548125013362836243e-06
9.7456606415097685485e-06
9.7382481390626359939e-06
9.7288071359062363935e-06
9.7208983806019914171e-06
9.7107402918051299992e-06
9.7020137363256463565e-06
9.6901818012553960391e-06
1.2706129629578437107e-05
1.2713424945426232349e-05
1.2711702458451687952e-05
1.270491061396256524e-05
1.2694534177549462607e-05
1.2673624391383634085e-05
1.2622826599035257862e-05
1.2554639963275031022e-05
1.249647843884767801e-05
1.2451010135597652802e-05
1.2417478127258027489e-05
1.2395273779105164648e-05
1.238096510857392981e-05
1.237143208073771588e-05
1.236513983610792097e-05
1.2366439500099118542e-05
1.2390347299886645641e-05
1.2428500480786684959e-05
1.2457001858562638332e-05
1.2476469222509819232e-05
1.2489951260936376786e-05
1.2501100981857581583e-05
1.2512774664010835532e-05
1.2526454653623572086e-05
1.2541673280460008538e-05
1.2557049041253720808e-05
1.2570765064302088685e-05
1.2582294047261268912e-05
1.2591967699967695891e-05
1.2602573239216373149e-05
1.2615913630712309273e-05
1.2634736567195768483e-05
1.2659143914340971744e-05
1.2688930205042932663e-05
1.2722542933439639264e-05
1.2757021034408810145e-05
1.0396659413428381796e-05
1.0383754650904299186e-05
1.0372820855332983873e-05
1.0360008466865645567e-05
1.0348944495035179261e-05
1.0336004228248467268e-05
1.0324990188949207797e-05
1.0312260126413390959e-05
1.0301810428176436449e-05
1.0289925387180084521e-05
1.0280548486115519193e-05
1.0269764803371682959e-05
1.0261518093995435042e-05
1.0251495465121279851e-05
1.0243595330359045681e-05
1.0233419863102488325e-05
1.0225017292852818163e-05
1.021405918479653827e-05
1.0204693737726265891e-05
1.0191659305028958628e-05
1.3345250282647585285e-05
1.3362711033922834434e-05
1.3371938461965410358e-05
1.3372161933521611713e-05
1.3365407934240147557e-05
1.3354639333028015894e-05
1.3338004620476852716e-05
1.3299727890084656775e-05
1.3229828412514572613e-05
1.317079401214577781e-05
1.3127818653699741244e-05
1.309865417370652473e-05
1.3080439764769853829e-05
1.3069125879490131709e-05
1.3061832700664998433e-05
1.305713118274068259e-05
1.3055477663320541571e-05
1.3060148009881242587e-05
1.3078166685867608811e-05
1.310171353728522367e-05
1.3125653659716425651e-05
1.3150749451132653047e-05
1.3177737108270531723e-05
1.3206324719920310267e-05
1.3235356642401467783e-05
1.3262402851958710569e-05
1.3285427734022194714e-05
1.3302712320586620643e-05
1.3314696636409065932e-05
1.3323289368124072919e-05
1.3331561404896664569e-05
1.3342878686971374581e-05
1.3359062821263242008e-05
1.3380589726993686168e-05
1.3406157968334224444e-05
1.3432848642093460351e-05
1.0925566297272510915e-05
1.0914214651918058711e-05
1.0900701825001618507e-05
1.0889184282258400336e-05
1.0875378972012767799e-05
1.0863673035873190568e-05
1.0849825611059912882e-05
1.0838497944844198591e-05
1.0825426001157991467e-05
1.0815125013690499571e-05
1.0803146826420255595e-05
1.0794066018601261144e-05
1.0782977047551044265e-05
1.0774393926403587389e-05
1.0763262859101240752e-05
1.0754214740841495034e-05
1.0742290551215953349e-05
1.0732225662343134368e-05
1.0717925657383042397e-05
1.4037702201770408777e-05
1.4048417687411928568e-05
1.405217484481154197e-05
1.4049178311193959411e-05
1.4041524419562132471e-05
1.4031066905746859361e-05
1.4015760287856281026e-05
1.398421511650484865e-05
1.3924876113741903807e-05
1.3870053307694500642e-05
1.3827129338021148345e-05
1.3797109767602161616e-05
1.3778077655590195829e-05
1.3767503157991016076e-05
1.376178082474567021e-05
1.3758458680491276251e-05
1.3756417047168192601e-05
1.3755850255458341758e-05
1.3756173818020074894e-05
1.3759425680518435738e-05
1.3769475197256633798e-05
1.3793093174720173812e-05
1.3827997477305144946e-05
1.3870250503316841693e-05
1.3914855225653900182e-05
1.3955555252607302868e-05
1.3987669980789609067e-05
1.4008669867326876241e-05
1.401920958379415617e-05
1.4021534573611825743e-05
1.4019093104693248748e-05
1.4015969786237461898e-05
1.4014853238748387754e-05
1.4019104714445037153e-05
1.1509115900208022958e-05
1.149489894681262566e-05
1.1483204971772185672e-05
1.1469027885176967253e-05
1.145705324888434876e-05
1.1442390331092592236e-05
1.1430086157183056231e-05
1.1415150641216247071e-05
1.140292155503271926e-05
1.1388525829669272801e-05
1.1377151776897424288e-05
1.1363801351827507009e-05
1.1353661335075780923e-05
1.134121537644443715e-05
1.1331676095596842778e-05
1.1319278075802367598e-05
1.1309393112157951406e-05
1.1296289742211341507e-05
1.1285460793226525581e-05
1.1269894599946806522e-05
1.481686119560014012e-05
1.4806569728284969117e-05
1.4782505506171230876e-05
1.4733236009257524588e-05
1.4682101485462748276e-05
1.4635006735431527747e-05
1.4591989518500120965e-05
1.4552259612473421134e-05
1.4516617771071123073e-05
1.4486278411055235275e-05
1.4462173314557133136e-05
1.4445164279311254019e-05
1.4434684207811133191e-05
1.4429158315022409464e-05
1.4429814744849244141e-05
1.4443641456158157684e-05
1.4471132859225570069e-05
1.4493250106412048351e-05
1.4510271298567168683e-05
1.4527448239234558029e-05
1.4549011459505910033e-05
1.4577701791408626089e-05
1.4613363443677670594e-05
1.4653134962867399776e-05
1.4693013430615531629e-05
1.4727982674847277632e-05
1.4754769403429332872e-05
1.4771826363165377029e-05
1.4780906094095791476e-05
1.478600317930030046e-05
1.4791627770768260274e-05
1.4801813782878426226e-05
1.4817921753446023478e-05
1.2093429153849465091e-05
1.2081270387040052058e-05
1.2066347243840470506e-05
1.2053994205518233566e-05
1.2038559548434998465e-05
1.2025679287471443976e-05
1.2009677620822939201e-05
1.1996549681101215725e-05
1.1980741786995005452e-05
1.1968102020070303676e-05
1.1953084914713292452e-05
1.194155448217337324e-05
1.1927361814421709866e-05
1.1916487457170120521e-05
1.1902427937707682238e-05
1.1891490181249255801e-05
1.1877042053437407746e-05
1.1865454000738252894e-05
1.1848741532417039258e-05
1.5588535312449895725e-05
1.552363643799377108e-05
1.546231317290981089e-05
1.5407240121009318855e-05
1.5359696191630776047e-05
1.5319362269832245926e-05
1.5285391075524472777e-05
1.5256730416095993589e-05
1.5232217263185397809e-05
1.5212115107526330462e-05
1.5196507057745813971e-05
1.5185822643606202443e-05
1.5183507251666563813e-05
1.5199541614659960943e-05
1.5228774183897577778e-05
1.5252784007566066193e-05
1.5272109575405249754e-05
1.5289141878663279684e-05
1.5307217135895236494e-05
1.5329646834971810221e-05
1.5358538255098879197e-05
1.5394177785358051965e-05
1.5434843844327572442e-05
1.5476866588174695809e-05
1.5515752136555599163e-05
1.554713426160300049e-05
1.5568657849752039473e-05
1.5580274331715580942e-05
1.5585114349669934808e-05
1.5587520922231557342e-05
1.5591669665520783506e-05
1.5599978685913666707e-05
1.2723052441995290771e-05
1.2710423916062656968e-05
1.2694721075338238981e-05
1.2681997372902451853e-05
1.2665818399857294187e-05
1.2652436112689569419e-05
1.2635471902347493906e-05
1.2621484739662384002e-05
1.2604202916191711032e-05
1.2590183483625784212e-05
1.2573230609517272569e-05
1.2559921427615500437e-05
1.2543564095693151991e-05
1.2530920349482345215e-05
1.2514908074686160728e-05
1.2502726865065576548e-05
1.2486888995525169567e-05
1.2474614654595131245e-05
1.2456927031164905052e-05
1.6329954076246316539e-05
1.6289385031459670239e-05
1.6248746010060923477e-05
1.621001505778827057e-05
1.6174874172425793127e-05
1.6143915375294482124e-05
1.6117294095569235902e-05
1.6094285855024664165e-05
1.6074142193305479076e-05
1.605689840338427236e-05
1.6042589386750758944e-05
1.6031167510090321682e-05
1.6022576082957579191e-05
1.6017153520827173935e-05
1.6014807900043240854e-05
1.6015613404746042422e-05
1.6018366408624681646e-05
1.6022947418454747636e-05
1.603206264425305428e-05
1.6056300758205687031e-05
1.6112572913683227791e-05
1.6175731180018306085e-05
1.6238979158370381111e-05
1.6297764398465077704e-05
1.6347173090582138171e-05
1.6383109958021873585e-05
1.6404829052618660979e-05
1.6414834015345442257e-05
1.6417567291074256186e-05
1.6418403475163419983e-05
1.3373671154810696645e-05
1.3357088207012550148e-05
1.3343939521737139685e-05
1.3327055048165620612e-05
1.3313261626887076857e-05
1.3295480857972110414e-05
1.3280782631893318387e-05
1.3262110136030101824e-05
1.3246711598679054969e-05
1.3227711172721092571e-05
1.3212456362064899681e-05
1.3193766394338325774e-05
1.3179153114669123762e-05
1.3161132940382394433e-05
1.3147614921908165367e-05
1.3130470776926187097e-05
1.3117584700240396813e-05
1.3099176350963867438e-05
1.7180198377120308112e-05
1.7132682915660478446e-05
1.708158353313693256e-05
1.7031700070819098185e-05
1.698672644940028495e-05
1.6947172315532047415e-05
1.69131987736161502e-05
1.688332977743294195e-05
1.6856853538548666584e-05
1.683363468105240676e-05
1.6815001030419989085e-05
1.680213358108404619e-05
1.6795214441989587658e-05
1.6794146695218173181e-05
1.6797443391953688645e-05
1.6804763026816240702e-05
1.6819391915286705257e-05
1.6855967490871204381e-05
1.6911663334175424322e-05
1.6968339385871772937e-05
1.702859959188292237e-05
1.7090390452132794835e-05
1.7150160163537841513e-05
1.720151464411771359e-05
1.7239284314557850724e-05
1.7261137499296565266e-05
1.7267981828560492958e-05
1.7265198249847756517e-05
1.4091094511202552429e-05
1.4073950609840707449e-05
1.4060126138017807191e-05
1.4042885259913008176e-05
1.4028720352768053229e-05
1.4010654054163427327e-05
1.3995431574517196041e-05
1.3975946735307750055e-05
1.3959405034148576321e-05
1.3938891378608064123e-05
1.3921838420707248246e-05
1.3901278870009063258e-05
1.3884962100250778708e-05
1.3865464226554611015e-05
1.3850785415156905808e-05
1.3832743974790391207e-05
1.3819363012024336382e-05
1.3801477948855189837e-05
1.7969231654243771523e-05
1.7931198934072606072e-05
1.7893953185095231933e-05
1.7859809774785305177e-05
1.782977248021203783e-05
1.7803017802187497988e-05
1.777840227942548097e-05
1.7754969893592173648e-05
1.7733459056696994024e-05
1.7715398507491307507e-05
1.770231273151899617e-05
1.7695647713175001453e-05
1.7696029060564868931e-05
1.7704516231899521643e-05
1.7725348208037084694e-05
1.7756002928234404032e-05
1.7786917605828227255e-05
1.7820641713824997504e-05
1.7860285868624821372e-05
1.7906931283838437789e-05
1.7958360005614782816e-05
1.8010441427861330864e-05
1.8057529280163069752e-05
1.809506485781786926e-05
1.8120893249398678905e-05
1.8135322491503921274e-05
1.8141977479985457028e-05
1.4751695081442122386e-05
1.4732492306870165224e-05
1.4715460658416179668e-05
1.4695648651165870165e-05
1.4677725921465205314e-05
1.4656422460794565744e-05
1.4636707520317230932e-05
1.4613509021243450335e-05
1.4592536006442630622e-05
1.4568332092439505783e-05
1.4547244283769365157e-05
1.4523802989476175993e-05
1.4503836223932485604e-05
1.4482313772861715213e-05
1.4463906089346900734e-05
1.4444267843920072022e-05
1.4427306603837067016e-05
1.8563935409859039065e-05
1.8542797560074074923e-05
1.8524927213456131276e-05
1.8509048669749398415e-05
1.8503253545395113643e-05
1.8500374146207853373e-05
1.8492704613573296988e-05
1.8481625810995894361e-05
1.84683463691683222e-05
1.8455043638417029496e-05
1.8443109888177963262e-05
1.8435378446934152488e-05
1.8435137826055834399e-05
1.8448302341880715171e-05
1.8465060726138537826e-05
1.8478828717686286308e-05
1.8490573872716912303e-05
1.850186375192191675e-05
1.851633330168396519e-05
1.8536628113243153008e-05
1.856505580719157664e-05
1.8600670084225010025e-05
1.8640837002509362915e-05
1.8683172902288027909e-05
1.8724666533531556472e-05
1.8764455770682105407e-05
1.8803252279176599842e-05
1.5130128011421413564e-05
1.511238952995595626e-05
1.5086274566033809472e-05
1.5066995230632556339e-05
1.5038907633868972975e-05
1.5017614131995361674e-05
1.498747274157673222e-05
1.4964708609434829709e-05
1.4933612262933477168e-05
1.4910841967340680793e-05
1.4880267467092995223e-05
1.4858791865270707885e-05
1.4829709604681704164e-05
1.4810008136062848523e-05
1.4777818986187445257e-05
1.4770420697820556472e-05
1.443813970165404645e-05
1.4417081661542209366e-05
1.4403452930337448998e-05
1.4393878242734991672e-05
1.4401681401224085408e-05
1.4420384026380961013e-05
1.4427628140938922208e-05
1.4425770985031375062e-05
1.4419063012713880868e-05
1.4413171436815441645e-05
1.4413105083019985773e-05
1.4422497330755201694e-05
1.4435670131528279927e-05
1.4448211539871719339e-05
1.4456546186088107552e-05
1.4460736619983855292e-05
1.4461129408373979736e-05
1.4459360748704673305e-05
1.4454844718228473458e-05
1.4450764840252970761e-05
1.4447543447243451571e-05
1.4446531730443452446e-05
1.4452889316516788284e-05
1.448194210199699117e-05
1.4533441697790052625e-05
1.4583242670768349912e-05
1.4631759612780824469e-05
1.4679864559191185206e-05
1.1787662653513715074e-05
1.1764835117010986665e-05
1.1747839610534178679e-05
1.1723488781177212348e-05
1.1705309189880604842e-05
1.1679796909974119311e-05
1.1661145584968863616e-05
1.1635473809328319278e-05
1.1617281591471532613e-05
1.1592408197401115997e-05
1.15753475408770586e-05
1.1551621628452736325e-05
1.1535762206844358085e-05
1.1509314976684770421e-05
1.150598049911741499e-05
1.3703321662107850761e-05
1.3685612882968712435e-05
1.3670416077768335323e-05
1.3655656846097929632e-05
1.3641379129224549653e-05
1.3628618410421850277e-05
1.3619015784529895388e-05
1.3615205114939834955e-05
1.36250507011044705e-05
1.3652934934420015749e-05
1.3680881164600689959e-05
1.3703865781159088515e-05
1.3719888029350126376e-05
1.3729250925389546809e-05
1.3733789815280684398e-05
1.3736189236385744103e-05
1.3739932545553891941e-05
1.3749039393950282086e-05
1.3770367800367558502e-05
1.3801281769561381824e-05
1.3838708053433293401e-05
1.3879011143802168039e-05
1.3916539132335296029e-05
1.3947886827840025098e-05
1.3970454688670180373e-05
1.3984318010455286976e-05
1.3992205574648588104e-05
1.1194783244064773187e-05
1.1180134036953114633e-05
1.1159773548367885512e-05
1.1143939960643816452e-05
1.1122771874544621731e-05
1.1106789078588648605e-05
1.1085866355867306739e-05
1.1070579102315448772e-05
1.1050497988970612746e-05
1.1036291771194943375e-05
1.1017286904071560191e-05
1.1003962751634232962e-05
1.0983538016135880818e-05
1.09749032952751048e-05
1.3204306857633781109e-05
1.3189007318564574487e-05
1.317481210196707891e-05
1.3162453161606171083e-05
1.3155837713187804364e-05
1.3150893059082176671e-05
1.3145361922460473478e-05
1.3140980032599298296e-05
1.3138878372606292209e-05
1.3141947251673987397e-05
1.3155671300400726803e-05
1.3169204108017988571e-05
1.317872079453150001e-05
1.3185108539460037923e-05
1.319096877742889103e-05
1.3200804336424571398e-05
1.3217150590817877199e-05
1.3241371255740941638e-05
1.3271718325399812051e-05
1.3304402612297572619e-05
1.33353701523411497e-05
1.3360033370872142092e-05
1.3377134449634564184e-05
1.3386116130847685484e-05
1.3389989612706473471e-05
1.3392778185617146381e-05
1.0772896991765431918e-05
1.0753371913119625091e-05
1.0738258003979752396e-05
1.0718215680959821583e-05
1.0703256863238619755e-05
1.0683714094456942483e-05
1.0669598310827220312e-05
1.0650913328791551465e-05
1.0637735506476317615e-05
1.0619804091802405394e-05
1.0607130709580491967e-05
1.0587893388264539438e-05
1.0578552420770942724e-05
1.2742004224311436448e-05
1.2730859686927009831e-05
1.2718229177629823112e-05
1.2705911393991093674e-05
1.2695120583815144304e-05
1.2684828141100172225e-05
1.2673485023179533148e-05
1.2663838886524482393e-05
1.2655166764769199629e-05
1.264771879278163907e-05
1.2641581007029677961e-05
1.2637488928866054966e-05
1.2636927306070191749e-05
1.2645070902182987884e-05
1.2674532247444556061e-05
1.2718365953419698595e-05
1.276089700974193112e-05
1.2799771233670919531e-05
1.2832766119410263586e-05
1.2858318212504297779e-05
1.2875266919235967453e-05
1.2885118103244978672e-05
1.2889249887589404063e-05
1.2891703700813343097e-05
1.2895966180588105558e-05
1.0347149787114104524e-05
1.0332761594518268761e-05
1.0313755974022818224e-05
1.0299732803501377779e-05
1.0281346596313151653e-05
1.0268192310284427371e-05
1.0250487737000269604e-05
1.0238040093200878651e-05
1.0220787687571994949e-05
1.0208558337358546435e-05
1.0189731968955179528e-05
1.0180512010562026189e-05
1.2205264600765820457e-05
1.2206411235178185159e-05
1.2205193796293482085e-05
1.2202086966118711638e-05
1.2198342795329971083e-05
1.2194602738329791088e-05
1.2190634113315208261e-05
1.218642707795334975e-05
1.2182971125967825187e-05
1.2185572216844426486e-05
1.2208114288315589447e-05
1.2238446932939185045e-05
1.2260319626842746958e-05
1.2275216949363073243e-05
1.2285768895331768087e-05
1.2295694824362776308e-05
1.2307950596973479381e-05
1.232292735450985043e-05
1.2340453745617471852e-05
1.2357280420844590906e-05
1.2371914431140858633e-05
1.2382355170404409984e-05
1.2389888711440465578e-05
1.2396471492442102231e-05
1.1726732282433202184e-05
1.1730402069461520455e-05
1.1730603861066232364e-05
1.1728791123944214234e-05
1.1725888287272688925e-05
1.1722616368050961188e-05
1.1719604129321583297e-05
1.1719533815281204495e-05
1.1732250556900196222e-05
1.1766746219599818316e-05
1.1799484652493813513e-05
1.1825794319106992716e-05
1.1846128546802000406e-05
1.1861188337450646494e-05
1.1873339126081930263e-05
1.1884568281379722464e-05
1.1895918498528461183e-05
1.1908279837004199166e-05
1.1919936659401181167e-05
1.1930539409707597426e-05
1.193899261341383547e-05
1.1946337686851619622e-05
1.1954192999998469258e-05
1.1321331980001645673e-05
1.1314150443954845777e-05
1.1307268759341620247e-05
1.1300247681407935609e-05
1.129340793924364082e-05
1.1288159113033368014e-05
1.1290220387757006335e-05
1.1304785024103052198e-05
1.1320795291240887763e-05
1.1337222909800361055e-05
1.1354851335164575625e-05
1.1374211899228959304e-05
1.1395476369656637445e-05
1.141813855416293429e-05
1.1441051335286635737e-05
1.1462750931573014988e-05
1.1481209773902703402e-05
1.1496054162023534268e-05
1.1506458220298977567e-05
1.1514165615949668894e-05
1.1521552733900149008e-05
1.0879542602613129814e-05
1.087932266031331897e-05
1.088245683705072924e-05
1.0886142688996721986e-05
1.0890221891614959725e-05
1.0895505758612266799e-05
1.0904175253385845157e-05
1.0918631796680786309e-05
1.0940703286636498229e-05
1.0971086647441316268e-05
1.1008013816363980679e-05
1.1048171977861947335e-05
1.1086240751523521379e-05
1.1117718663500670081e-05
1.113948255188759624e-05
1.1150442844959082688e-05
1.1153073496170758019e-05
1.046907956082004545e-05
1.047001560485435807e-05
1.0474748740043149598e-05
1.0488721181173666866e-05
1.0518112691070452512e-05
1.0553203280205121801e-05
1.0593075857428528624e-05
1.0635195350603109178e-05
1.0675545340637844865e-05
1.0710811821023141373e-05
1.0738306294525959522e-05
1.0757401868305474084e-05
1.0769691791587481685e-05
1.0181673094801976177e-05
1.0182136284039067071e-05
1.018280068071738108e-05
1.0184953180245590311e-05
1.0192671858879116893e-05
1.0213757581473355588e-05
1.023866283494380686e-05
1.0261618917392170374e-05
1.0281031475198368602e-05
1.0295408412708055332e-05
1.0305577898704881479e-05
1.0313760881841864473e-05
6.2833406470858376892e-06
6.08944238967997689e-06
5.880860005786087621e-06
5.7269855695290280121e-06
5.6160250729374634494e-06
5.5353725752187628995e-06
5.4773760425792125426e-06
5.4390931094685028536e-06
5.4190147858316235882e-06
5.4134189038341616284e-06
5.4150409334776986015e-06
5.4275258853709528958e-06
5.4830689242246979326e-06
5.6844237938852785664e-06
6.0067173274716011391e-06
6.2371426132036253046e-06
6.3747842668408536646e-06
6.4395012709856766557e-06
6.4582780027898244442e-06
6.4557592686173177551e-06
9.1203054836561551702e-06
9.0230239946947366907e-06
8.7455673086377092512e-06
8.4463144155597822776e-06
8.217466068687032487e-06
8.0456835867789859893e-06
7.9195486610026236444e-06
7.8305462024827023949e-06
7.7749927507685937298e-06
7.7483803778753353625e-06
7.7428932048871420023e-06
7.7468301388581366457e-06
7.7710363785117860338e-06
7.8651014338083031021e-06
8.1532809670165489352e-06
8.4763368047969408462e-06
8.6928494182785318842e-06
8.8116276746329155755e-06
8.857934021583971609e-06
8.8628427133835580308e-06
8.8539523365378542275e-06
8.837912670890560405e-06
1.5284061651193144509e-05
1.5237824587685471121e-05
1.5104274842787329371e-05
1.4788202164983709277e-05
1.4473316450601319007e-05
1.4230535044928827553e-05
1.4062320861902907681e-05
1.3961710090528970014e-05
1.3911895359368031951e-05
1.3893947331430469696e-05
1.3888546236769122537e-05
1.3899470706759931604e-05
1.395080141368724553e-05
1.4113018822013221449e-05
1.4393050864142024504e-05
1.4631125170713006942e-05
1.4792580475225256605e-05
1.4871550528428210893e-05
1.488628528345361851e-05
1.4875077636469643215e-05
1.4851896559670497687e-05
1.4808771959492790239e-05
1.4718903848668781848e-05
1.4575011673321884055e-05
1.4403242472104659734e-05
1.4210203270652051172e-05
3.3282587817809216105e-05
3.30663221049684147e-05
3.2696090648515915259e-05
3.2425709972753197371e-05
3.2266096695611504945e-05
3.2192756813696394333e-05
3.2157784994322891731e-05
3.2140776574034916142e-05
3.2161766155012580406e-05
3.2240560812485124403e-05
3.239352509497902665e-05
3.2635589829014143742e-05
3.2967980380916888283e-05
3.3330435111140986333e-05
3.3662601056627162489e-05
3.389829311299093022e-05
3.4010348068195638948e-05
3.4022888845055060587e-05
3.4000677990403991929e-05
3.3937741703862970405e-05
3.3770480265566130086e-05
3.3528520795963789912e-05
3.3320053184072759398e-05
3.3150115626836291062e-05
3.3009087314917315477e-05
3.2894058891219240008e-05
3.2802699070327696299e-05
3.2734325172502689043e-05
6.9584650934718483666e-05
6.923924169366614458e-05
6.8961395635609606708e-05
6.8767084831063615409e-05
6.8651060297033510496e-05
6.8580388075726566991e-05
6.8536432482427578675e-05
6.857142970349795405e-05
6.8677042599862730987e-05
6.8786781915160496504e-05
6.8927118627050374951e-05
6.9092400108953112153e-05
6.9266019920505956468e-05
6.9401630677525389919e-05
6.9461744282257208887e-05
6.9442461504825800118e-05
6.9385025601850203159e-05
6.9292335029670428805e-05
6.9113253653942021554e-05
6.8845141031319864559e-05
6.8598164428289936062e-05
6.8374319941351860527e-05
6.8170804173152242536e-05
6.7991704900622010484e-05
6.7836319680694844741e-05
6.7712911218223981722e-05
6.7613567269224911639e-05
6.7546351458780027558e-05
6.7503756368733061274e-05
6.7479438909918496438e-05
0.00010368739263485142856
0.00010345552887263491349
0.00010325825273985139274
0.00010308007949691108413
0.00010290533436304669514
0.00010272223678567842301
0.00010252486584795253617
0.00010231355612925363162
0.00010209341226117016148
0.00010187332939292135072
0.00010166305339079004504
0.0001014693450568254795
0.00010128861594309712787
0.00010110270485494893885
0.00010088757828983776707
0.00010062922605694355155
0.00010033444721776113356
0.00010002777210052935463
9.9736732227971352984e-05
9.9480173780355316145e-05
9.9260619718089909387e-05
9.9066143864060004598e-05
9.88811190646976941e-05
9.8697663080936899149e-05
9.8519936651322783262e-05
9.8356861962111568655e-05
9.8210963201842405826e-05
9.8075878703865988838e-05
9.7937165728727312397e-05
9.7784198342506492476e-05
9.7610457556715236058e-05
9.7419994945247836374e-05
0.00012279689007160227263
0.00012251921199196599789
0.00012223294977146961977
0.00012193316011466192575
0.00012162382233826281698
0.00012131128181912111759
0.00012099750932627196111
0.00012067982176361754946
0.00012035353401023780797
0.00012002258672183134048
0.00011970242065673760616
0.00011941118834635101994
0.00011915796821388884897
0.00011893225535869922545
0.000118707522612027615
0.00011846194859505121259
0.00011819068872122324564
0.00011790927917548021757
0.00011764075041610506087
0.00011739923852233749319
0.00011718370640145694787
0.0001169804221894318061
0.00011677389892293244379
0.00011655902880292867674
0.00011634308753278342424
0.00011613652972613665412
0.00011594090325130490548
0.00011574653351725076324
0.00011553879401440601382
0.00011531102375506001995
0.00011507065556011401386
0.00011483400213714044561
0.0001146136169341131116
0.00016344455588551318713
0.00016231000031293200871
0.00016127472450157888948
0.00016038156354246447849
0.00015960607836226089703
0.000158856625079770061
0.00013202898806631579477
0.0001317838635432232381
0.00013152448303935804761
0.00013124808818907709508
0.00013096119723918239297
0.00013067096681338322508
0.00013037891862628526031
0.0001300802190896332641
0.00012976997221684168408
0.00012945306933369440721
0.00012915039549687951743
0.00012888586158366966729
0.00012867052317126574917
0.00012849021365128951563
0.00012831026637470489631
0.00012810219423376514045
0.00012786094028181699289
0.00012760504940116125776
0.00012736079245400907037
0.00012714461751084279442
0.00012695455167550075072
0.00012677365139890709161
0.00012658390020841246964
0.0001263807942247247441
0.00012617518517625986871
0.00012598069621219166753
0.00012579996970538167276
0.00012562133128775425069
0.0001254287512907868718
0.00012521537632481237641
0.00012499069641754367659
0.00012477275484980103731
0.00012457689927134846198
0.00012440212711516701756
0.000154863877713229067
0.00015355786112890881497
0.00015233763552329894595
0.00015127450552910082812
0.0001503582888843878597
0.00014951383938711790755
0.00014863826875239949431
0.00012427772904200913811
0.0001241018023101136329
0.0001238894647417526152
0.00012364759570810914717
0.00012339152846394874693
0.00012313471321460722286
0.00012288207855125840031
0.00012263157435549773121
0.00012238446452312291509
0.00012215210599766110691
0.00012195471056600644356
0.00012180638961485050628
0.00012169903266513347126
0.00012160245746571073111
0.00012147826196848143115
0.00012130608244646169289
0.0001210979417501541742
0.00012088394910731913251
0.0001206929731405234613
0.00012053379970862955104
0.00012039293519511220945
0.00012024659691008649052
0.00012007810624249974033
0.00011988974454863567988
0.00011969676522881877447
0.00011951112638720715216
0.00011932944720328614373
0.00011913592899410372055
0.00011891811840688838167
0.00011867852853981720974
0.00011843401518663650585
0.00011820404389553363321
0.00011799614120637219713
0.00011780193677151392197
0.00011760208092842267154
1.0078426816026128435e-07
1.0073655574886917183e-07
1.0070777912308362473e-07
1.0074025891441207263e-07
1.0078207836730294727e-07
1.0087559998982192077e-07
1.0100915580872329597e-07
1.0108930997646066225e-07
1.0132912357674163993e-07
1.0144018135169935109e-07
1.0161355901222206429e-07
1.6416495634142139235e-06
1.587824772501806603e-06
1.5341242371190466619e-06
1.4792546961017171716e-06
1.4208388164644228736e-06
1.357235511718867827e-06
1.2884009543760738298e-06
1.2161496198553793869e-06
1.1434559021927593479e-06
1.0734108142929194675e-06
1.0083760931402757989e-06
9.4974827656012508456e-07
8.9800092394812218104e-07
8.5311259333600884144e-07
8.1477022777435742675e-07
7.8251921854624611216e-07
7.5595723577655125923e-07
7.3450903238954098937e-07
7.174487825008238317e-07
7.0417603230328443702e-07
6.9409555448314867215e-07
6.8668921077164781862e-07
6.8140697418513137887e-07
6.777251962072474804e-07
6.7510848326592437025e-07
6.7313905464691459814e-07
6.7166231503094820215e-07
6.7045652068436801085e-07
6.6946359117674588225e-07
6.6871278943231996778e-07
6.6820113728194074946e-07
6.6786732815884266533e-07
6.6765978592073561198e-07
6.6811134320971971276e-07
6.693753523897079508e-07
6.7022832838937862047e-07
1.0711736644908140676e-07
1.0699901867670793906e-07
1.0682449602697505145e-07
1.0666029653207768736e-07
1.0650259113186339873e-07
1.0636471819568752964e-07
1.0621038687250439935e-07
1.0604487433121453948e-07
1.0589191107652191031e-07
1.0577742849811265253e-07
1.0568843312740661515e-07
1.0562020570278203657e-07
1.0557792725383577047e-07
1.0557812529041728737e-07
1.0562103895446660487e-07
1.056932384274192262e-07
1.0577270386522436768e-07
1.0587504871914455339e-07
1.0606445004706350026e-07
1.0613623869420429609e-07
1.0625153627974283668e-07
1.7772078877484042474e-06
1.7072038435178367736e-06
1.6355589238314888603e-06