/*--------------------------------*- C++ -*----------------------------------*\
  =========                 |
  \\      /  F ield         | OpenFOAM: The Open Source CFD Toolbox
   \\    /   O peration     | Website:  https://openfoam.org
    \\  /    A nd           | Version:  12
     \\/     M anipulation  |
\*---------------------------------------------------------------------------*/
FoamFile
{
    format      ascii;
    class       volScalarField;
    location    "0.0075";
    object      k;
}
// * * * * * * * * * * * * * * * * * * * * * * * * * * * * * * * * * * * * * //

dimensions      [0 2 -2 0 0 0 0];

internalField   nonuniform List<scalar> 
106891
(
0.019488687620163189229
0.019479592463224022075
0.019465137976987768875
0.019457835919342823805
0.019444607346166722928
0.019437735356465361825
0.019424371180832900041
0.019417960747931790888
0.019404716549258054642
0.019398298374030353147
0.019382235446902065096
0.020535306353784844868
0.020650745821667718105
0.02071504616081345021
0.02074275780580889586
0.020750596593736167494
0.020749997032399655067
0.02073598879849182855
0.020673779553619396621
0.02051030824478177611
0.020348218134600918466
0.020221636048286202592
0.02013381397399475678
0.020080508727319999751
0.020055030660882513377
0.020046175625049046654
0.020045249366237697514
0.020053464754388471841
0.020100043215014098269
0.020256963487239969951
0.020450081029721095538
0.020600382550960201489
0.020705552748198598895
0.020766673243464196102
0.020794571606283021592
0.020807049016509846645
0.020824248858858421946
0.020854537998413049532
0.020896297325731769123
0.020944519194875783896
0.020998140330046297791
0.021057367873728832786
0.021128865559603797475
0.021215659623940997386
0.021323280717505079668
0.021448843979201749621
0.021589025611804864985
0.021734983190510839129
0.021875550375450854984
0.020642901666972326286
0.02062154432444871302
0.020607716668162922441
0.020587544649443949296
0.020574104712750052731
0.020554372406714201821
0.020541726121306152358
0.020522535627499088884
0.020510926440264417442
0.020493031847330912126
0.02048293306650833881
0.020466486483729187662
0.020458108409356121071
0.020442826521462110351
0.020435199715882031851
0.020419932858782637031
0.020412744869068025905
0.02039756580313615425
0.020390043534979727241
0.020370968993409278164
0.021968618505730983653
0.022010961657494818033
0.022025390662776467982
0.022026252541806821267
0.022019115223883719418
0.021980451004220354777
0.02184332338156293532
0.021649496707630853931
0.021492198730634154424
0.021378214659759267602
0.021303112374086642655
0.021263656893233253559
0.021247703428196287184
0.021244258557422786987
0.021247374564100970223
0.02127113588345958331
0.021366802167424880227
0.02150719940375590139
0.021610809174446816289
0.0216812668822005776
0.021730612459278226406
0.021772347850958887611
0.021816572323606741451
0.021868582573118928308
0.021927247815633949674
0.021988622546169584587
0.022047117533886231855
0.022100941589622984801
0.02215040694670193655
0.022204195714732751638
0.022268103798406463367
0.022352149100710424351
0.022457735561133781305
0.022585436596269607007
0.0227306064935549057
0.022882731175075495672
0.021711862288247514574
0.021688536559159244527
0.021673773861040131899
0.021651634876526878321
0.021637304726976589603
0.021615503344497345034
0.021601803277645909018
0.021580484831681855801
0.021567755602232816653
0.021547635547707416626
0.021536361879290675386
0.0215176232995701322
0.021508171871240235745
0.021490658325094173092
0.021482142575070178186
0.021464845473332667958
0.021456650948454076416
0.021439305049282802312
0.021430571137075558191
0.021408143026396184855
0.023012384013451351455
0.023091090695181018533
0.023147470712982221724
0.023178016566426196815
0.02318824999270869755
0.023187120625523596762
0.023168211786832038079
0.023077208735127259509
0.022878945317635714096
0.022719751652659742058
0.022615453020975104237
0.022555746621195683216
0.022528814494887229591
0.022519501564598483345
0.02251761398344306192
0.022518660869711808886
0.022524975143742402561
0.022548806610479362605
0.022615618291616151891
0.022699815190504627621
0.022784272309119796979
0.022872115528934335721
0.022966505319950432373
0.023067466501327127393
0.023172503068653645814
0.023274942001459134749
0.023369060204235347911
0.023448790315778490767
0.023513971681456250634
0.023568717538738796075
0.023621760774705919533
0.023684271859300547181
0.023763386579059287557
0.02386247670620091077
0.023978686903873946967
0.024102640060672295141
0.022809879469671091867
0.022793992351333211555
0.02276968721610913779
0.022754494087129501639
0.022730482944409460128
0.022715703375736782249
0.022691900660449879773
0.022677937587540126368
0.022655401581174832576
0.022642771553728451017
0.022621429062065587234
0.022610678215650492628
0.022590658549843087299
0.022580985470027677836
0.022561211400698864132
0.022551706984201939921
0.022531707345254805425
0.022521587231630495196
0.022495491106125416886
0.024208082849606411824
0.024268363900727972504
0.024310271383173601839
0.024332408345486562784
0.024340360271449191371
0.024340747115349312818
0.024328462079178880817
0.024265527082523621893
0.024110451220185062648
0.023971949497636493853
0.023871422302560573597
0.023808283356864443775
0.023773847113858690566
0.023759780071841114096
0.023755805661307707877
0.023756101886556749841
0.023758642181471452404
0.023764854165047491485
0.023772541336866341577
0.023788148272979595804
0.023824678172214890093
0.023906186382486562664
0.024026625918792881426
0.024174789320622742245
0.024336321417675596535
0.0244917919106602891
0.024625358505284977023
0.024726389328191197836
0.024793702665866088758
0.024831523323832881828
0.024849717562554607397
0.024862466921269355674
0.024880846241723864748
0.024919188484109931064
0.024014444067259433507
0.023987057755129014003
0.023970422442440214583
0.023944069250161008344
0.023927874551391562635
0.023901486274671066706
0.023885776618307919678
0.023859402097543273846
0.023844012978036507183
0.023818598017573109488
0.023804316045696924387
0.023780139750489405481
0.023767803055852500249
0.023744794903199559905
0.023733559100560280147
0.023710682340912943994
0.023699586968958890471
0.023676349489545799043
0.023664603536316206056
0.023634587333882465382
0.025618682954741071184
0.025604665178468166004
0.025548966663309715525
0.025410373472161199015
0.025267839901411105752
0.025142523289857415802
0.02503661582313235906
0.024949358188749645726
0.024882382910319179176
0.024835925553901683216
0.024807271863500599679
0.024793926086190673508
0.024790927713251205422
0.024793084307990192333
0.024807316718094538088
0.024861403287846205873
0.024960662145031703441
0.025040615642802518254
0.025101991568937626759
0.02516250000702271658
0.025236898511222065344
0.025335631624729154643
0.025459737654339963803
0.025601502503734687582
0.025749504811289420508
0.025888461930939698358
0.02600800489616788766
0.026101709976185147322
0.026172264048269489739
0.02622909837758652038
0.026284339708104988154
0.026350741153791473054
0.02643429077002338104
0.025222975440255042401
0.025205382436419565551
0.025176827731568904994
0.025159976058444357555
0.025131420719235787048
0.025114611981964345133
0.025085471629484819983
0.025068501951418558499
0.025039888388827227089
0.025023496483918192951
0.024995927051731019891
0.02498154371065726409
0.024954998145295795298
0.024941690157898963737
0.024914957265930653962
0.024901958264837917301
0.024875052943209848694
0.024861612635114611891
0.024827771634235520221
0.026953359398298959437
0.026754986359230650134
0.026574896423453030214
0.026421225993420553724
0.026297996108393725118
0.026205359055644444899
0.026141087533662774045
0.026100782207400783502
0.026077221363813303523
0.026065836462120049039
0.026061857963364673529
0.026063632438301915367
0.02608197470428650494
0.026153219999904022547
0.026263260618371628285
0.026350506212748009416
0.026417963057190775589
0.02647469205857948954
0.026532997174812479602
0.026606076352558322151
0.026703146969441520636
0.02682666042426565256
0.02697211261212437497
0.027128472671494645307
0.027282007575104520042
0.027419139499191141907
0.027531709905683762057
0.027616678808173110438
0.027679783752435946353
0.027731063071897130851
0.027782107263486149895
0.027841851637004109976
0.02652112949265263836
0.026502934367904483481
0.026472191902117001711
0.026454662297724251818
0.026423819620836626332
0.026405867620656286315
0.026374048935770427055
0.02635541177189553233
0.026323341497182687482
0.026304691328586274346
0.02627326064259886268
0.026256167247994594005
0.0262254452441501619
0.026209345285917343832
0.026178491841714623262
0.02616339392749391507
0.026132829180599559393
0.026117814807409264061
0.026080418047517674868
0.028116276757353904359
0.028008623122841930925
0.027908477892016704536
0.027821256629699059326
0.027751463045254522871
0.027699808772905121224
0.027665552566594964895
0.027644155942655415648
0.027630625676764865306
0.027621881213775019426
0.027615062265184724122
0.027608437044005191413
0.027600954366463373996
0.027594152339308192917
0.027589276421023892216
0.027588952436122107098
0.027591793474115826335
0.027601010387355351394
0.027628420430071711639
0.02771212466012973677
0.02791125832789227712
0.028138981918905497243
0.028371741375213917896
0.02859552439311351113
0.028795754955933117181
0.02895936073069497671
0.029081872903360936333
0.029167172772883977194
0.029224793910679100484
0.029269592843621301814
0.027871877994149280022
0.027838805388106058897
0.027820369616763523241
0.027787180955870061788
0.027768111081705834642
0.027733865993377938841
0.027713958534586233262
0.02767875805185495558
0.027658063401742420673
0.027622710862572504714
0.02760272909316587378
0.027567719512101639817
0.027548571375505242348
0.027513879034819763159
0.027496705822999508578
0.027463079067478610856
0.027446762837448658578
0.027406630168578034745
0.029585343902354448165
0.029465136116484616502
0.029341215389582533252
0.029226338747579742178
0.0291297863041235644
0.029051281079890880349
0.028990653586168920602
0.028942671470761932584
0.028903853383026149176
0.028871565526390672446
0.028846905537395099717
0.028830668082528397578
0.028821711325920727764
0.028820340714747420818
0.028824752211622440418
0.028839401788417005912
0.028881179571236297726
0.02900450012595929411
0.029201873438355927665
0.029408997263060291522
0.029632258780039718443
0.029863286762896450177
0.030090965986785428443
0.030296273158166239087
0.030463431930857296642
0.030583774639374484983
0.030656655975731420677
0.030695613851723365512
0.029391972165829286651
0.029358364931402040204
0.029338316539884234241
0.029304402554055957592
0.02928448760264136877
0.029250059853533696974
0.029229688581648025081
0.029193773843613088359
0.029172053959258415629
0.029135054927916969464
0.029112847933821569407
0.029075433520479660593
0.029054277334862280147
0.029017847277055894978
0.028999291072686061987
0.028964410495883986113
0.028947519594805633247
0.028910124553787375917
0.03078368581432133072
0.030707458612891432026
0.030638741261527147747
0.030581482886522369513
0.030537098741404516272
0.030502684905073081112
0.030475184358973096688
0.030451642363442006645
0.030432331890435607158
0.030418022948504312708
0.030408951811843134422
0.030406223737246159539
0.030411246610915553673
0.030431835630870270049
0.030490058263729580279
0.030585476355834979867
0.030690228515723678993
0.030813821757225069026
0.030964481901845058998
0.031143041703239029289
0.031340023566712643666
0.03154184407828303921
0.031731087018367673536
0.031893854462988105447
0.032022788177261264642
0.032116882050093900625
0.032185712589365290948
0.030635691810735121016
0.030594817206958165728
0.030563160794053245706
0.030521136690050448131
0.030489044244615435414
0.030445634977002648119
0.0304117423643485707
0.030365941708321221582
0.030331237933841556642
0.030283737261536616825
0.030248695513984288213
0.030202133914902926787
0.030167575738895901355
0.030123557250316602973
0.03008962526714037064
0.030048319886001987472
0.030015957147184066378
0.031162856838221422023
0.031143224757044837142
0.031142912181723551163
0.031153663232546740386
0.031198548915099572065
0.031250713403737834239
0.031282189618015709964
0.031297553257527012394
0.031301087217314338407
0.031299546089158594708
0.031295709420851386406
0.031295865200679243157
0.031308693742316331954
0.031355212738206413026
0.031406549172911170376
0.031446547469346816661
0.031484499423309629529
0.031529032383998678579
0.031592043710459809247
0.031679950554151840858
0.031797833740535200175
0.031941096791013423584
0.032101448561142262306
0.032272126200091524884
0.032443794394653363566
0.032613909332959892251
0.032784770289860043491
0.030645154533463309088
0.030612643798119881094
0.030547760232843529371
0.030513012287598072908
0.03044554519046719504
0.030408567131807472117
0.030338238597270254099
0.030299365637786096483
0.030227146858890534958
0.030187908311406129458
0.030115189757681928157
0.030076868334993317466
0.030004732901375525539
0.02996772043024207785
0.029877736809010787405
0.029885748474440983202
0.024878391095817093542
0.024845192806430143467
0.024843369301523230558
0.024859606043811259546
0.024938047237144090468
0.025054877995986685191
0.025129727472895192764
0.025168760447313972411
0.025185644415356488873
0.025199893707913437191
0.02522854972176199681
0.025283300583592901306
0.025343507294690422599
0.025394320262840039404
0.025425146007417270821
0.025439403362886088555
0.025441650371631815281
0.025439788866938088663
0.025431790691751617051
0.025427785463964104606
0.025428066243436377863
0.025436902891796061427
0.025472905904355337692
0.025590935218412640823
0.025792415000960845078
0.025992325537353450082
0.026191811466669809305
0.026393953247180131777
0.024566941963318270764
0.024505688695421856682
0.02447098514945237821
0.0244080152971159689
0.024372846528335108396
0.024308597442069406619
0.024273538669443602001
0.024208998017097541067
0.024174600836690124384
0.024110794699212321351
0.024077721977148257987
0.024014871099837381552
0.023982966492369930944
0.023905464884655797803
0.023922534773003593933
0.023334820469490959172
0.023316135993642576191
0.023309885759784217119
0.023308040322236378561
0.023308364623194542664
0.023311599906037198948
0.023320840081942951355
0.023343829137368311138
0.023407850711045240927
0.023529351306864176863
0.023647042070750051712
0.023743389126278758444
0.023811048651338893867
0.023851227932532206855
0.023871620268986384894
0.02388341218263293278
0.023900179170997543077
0.023936646035019611134
0.024016948010661860052
0.024131990320403456235
0.024271244339287713354
0.024422627297672319657
0.0245671778933694053
0.024693607471729824704
0.024792945477459200909
0.024865392170372761088
0.024920567882686161382
0.023052054520255767928
0.023026794999689251253
0.022980082913181060916
0.02295358817182673733
0.022905912803312125647
0.022879585071839937671
0.022832155338809605183
0.022806703361776075462
0.022759951869830503252
0.022735948177537736864
0.022690670426507811297
0.022667698259014424506
0.02261448563999877287
0.022608928052105754097
0.02256955512436140468
0.022561816257499214822
0.02256016693381276278
0.022564576462085414454
0.022585175420578394029
0.022605220447085027508
0.022615954741808899642
0.022624654463438458735
0.022637537781566813982
0.022666530152963285105
0.022731260733188315276
0.02279367655676264523
0.022839412451372966689
0.022871014960710110697
0.022897868575331003366
0.022936770721828265984
0.022998008753295481887
0.023087347031020510196
0.023199203819450169017
0.023320559237257409285
0.023437519944532587968
0.023534640538907771606
0.023608359291587669576
0.023657435274533976377
0.023692882737737518822
0.023728924494767513614
0.022212553953375270555
0.022168387979428650497
0.022143455072252855864
0.022098410369159274952
0.02207378360654703095
0.022029131898303803277
0.022005494497312615143
0.021961590659554313526
0.021939283674896468967
0.021896401665304522643
0.021874725615916849886
0.021825573075065874545
0.021816897685732597467
0.021890102293660430866
0.02189758832312092493
0.021899985219739997316
0.02189970864316953536
0.021897875609038785355
0.021890309156974648713
0.021873297040727435192
0.021859237563450345521
0.02184801525692923671
0.021840869339152760298
0.021836652342419330536
0.021835842298424508467
0.021842182667590703121
0.021873776571064609819
0.021976193853962794345
0.022128794319713294275
0.022278878400496349849
0.022418968346379866685
0.022541037980415162129
0.022639199592847998599
0.022709431270250064056
0.022757701782777830374
0.022789787052942482581
0.022820601283413569776
0.022862380889332747924
0.021324333362092776772
0.021300483827334092124
0.021257362211167363242
0.021233898335012511838
0.021191175159174919368
0.021168700181685859429
0.021126270108803475722
0.021104769336803410468
0.021062964635186743473
0.021041916038686863527
0.020993743385452373618
0.020985301207123267797
0.020921734049237569741
0.020968892706963733474
0.021003955313440372116
0.021025618772874510309
0.021037636620058104003
0.021044188817333803199
0.021047719550766588043
0.02105059488624656111
0.02105650688656548683
0.021082067427224099321
0.0211730228213129687
0.021286540401072882867
0.021365971599170398287
0.021418354088856419309
0.021455534942424196038
0.021492544644076370941
0.021540430177553769597
0.021600197574173359699
0.021670733315362435134
0.021740682003421531177
0.021805602993077190244
0.021859562791285910843
0.02190790567044181153
0.021957442023616425414
0.020118417423980395481
0.020166860379640397238
0.020196902797921627293
0.020213591190641783113
0.020222181770121978872
0.020228027806072464839
0.020235040094472963451
0.02025220860387083946
0.020311568916770172261
0.020442674110234267115
0.020562813263371556433
0.020656005733273512942
0.020726107390614458004
0.020778430731894753647
0.020823396132687691656
0.020868508522916696946
0.020916710777164403828
0.020970230280266104889
0.021022848828130314552
0.02107404512881503808
0.021121125556574298077
0.021168524249675822746
0.021221830973516413871
0.019541088587043141389
0.019542039281364317893
0.019542635732457267622
0.019542936379405181219
0.019544268051260103858
0.019550019473312797019
0.019577248564767151667
0.019641680713996165913
0.01970395886003037389
0.019761445354253722589
0.019819722102641896405
0.019884022129670945317
0.019957417640988149576
0.020038997962539498859
0.020124370592221167003
0.020207686874612908884
0.020281705022113485221
0.02034579300228446172
0.020397974190055588595
0.020444837253353886908
0.020494401546652177282
0.018848542013631730541
0.018867868199131099943
0.018894871708804633625
0.018918220971944937209
0.018937099859629796805
0.018955714301266638616
0.018984174306616002914
0.0190334786731603256
0.019111705828441020311
0.019221768600577844588
0.019357166115814575247
0.019505948797368347081
0.019649616074990872844
0.019773006824458986413
0.019865769466057899006
0.019924079937694554737
0.019956045208524921669
0.018174683809195436857
0.018179395116758603757
0.018196595317841395001
0.018246936428661084117
0.018353149326943173081
0.018481488216338329972
0.018628259644628192282
0.018784470433621840851
0.018936467878753995148
0.019073423714540561208
0.019186416407861728306
0.019273081020082995229
0.01933830005879668204
0.017879705828009715557
0.017883064891067800006
0.017887710117906387153
0.017898632931356340398
0.017929868566789165796
0.01800872164442250678
0.018102216682086093302
0.018190700846899780091
0.018269556395551739963
0.018333991399816156748
0.018386648812834728572
0.018434634758857586234
0.012657826057605462561
0.011915840986086063957
0.011137632098713580453
0.010585796308811694713
0.010200816861762787569
0.0099269556261844353606
0.009731179412924681818
0.0096006606955954254534
0.0095301591187460545085
0.0095082681156267220141
0.0095117793098345292807
0.0095553258210491869018
0.0097542487713813009337
0.010488756277006993853
0.011726277983904277724
0.012663640987901229884
0.013252844098898488093
0.013549300823446300962
0.013654672141881561698
0.013669061450403478114
0.027651468067029730952
0.027125712567362524757
0.025539567659607579492
0.02386925903420301226
0.02263942388105655984
0.021746668506898322176
0.021108480481543349244
0.020665646370451311309
0.020391344691786748161
0.020260022197825116458
0.020232616187276133979
0.020251265023897603579
0.020375833771384174731
0.020871585473576814707
0.022433624694043148573
0.024267497229375142864
0.025555451165147482356
0.026301153432197098281
0.026627836907717819526
0.026709345085110556411
0.026705898065335548219
0.026655432020408084681
0.080297626218795881137
0.080008273420531475506
0.078812060026653155131
0.075728255203132935347
0.072689183421602909796
0.070408344767027702948
0.06888578971740796919
0.068032986005362255932
0.067668146771732204381
0.067593686254484225406
0.067614225408796260752
0.067766949438080203993
0.068292354505895977446
0.069895346857509491056
0.072699246836142414341
0.075128548229500838329
0.076810886135478012582
0.077670725647807928316
0.077894221274908553854
0.077881659514882198292
0.077773645951794798115
0.077472086900462908132
0.076682328625959861323
0.075322489816270335461
0.07367612398429246312
0.071828602691488205312
0.39543981694357499546
0.39111929304300852017
0.38326468206307667819
0.37779153215020522261
0.37487312386355142735
0.3739284598438036844
0.37386912620555062814
0.3742263450590768703
0.37543979666183791011
0.37790799518740969543
0.38195863799201656974
0.38796376513014113607
0.39605832389666811855
0.40492338044017789356
0.41315863762410670601
0.4191270476058031047
0.42210773706308601927
0.42267516498178897555
0.42246356893869729809
0.42136971082146140732
0.41784088373711919528
0.4125809734548803176
0.40820203188291576124
0.40474400879258126684
0.40192929984071057437
0.39970837385994784086
0.39808202773821960152
0.39707303514195885219
1.8005972000563303936
1.7851436176843198389
1.7733658985973044242
1.7660955829304394449
1.7630594766699474452
1.7625583359706709086
1.7635916610183379749
1.7687334647939239041
1.7773294871953806418
1.7855925051550609606
1.7945922774020421908
1.8040030897868271076
1.813402480442841691
1.821066915786071494
1.8255872279916436351
1.8268672877972256252
1.8267421039762006263
1.8248789458738421398
1.8182141169043661844
1.8065158550716271524
1.7957957471230785451
1.7864087161179942331
1.778289983456375678
1.7715022189574893829
1.7657883573864736615
1.7614666645003589363
1.7582201334855780406
1.756656683678173847
1.7564707369169594298
1.7572146251092204405
4.1529551215386231178
4.1377413761851178364
4.1262069757528623271
4.1171849146332908376
4.1091785117421189
4.1009783110490198865
4.092039227111163413
4.0824883078089682087
4.0727663978951929025
4.0631379262787659101
4.0534876344125274628
4.0434138982419245423
4.0322554885584702689
4.0193103996750156881
4.0041406374456212092
3.9868792093976619384
3.9683422303477580151
3.9497986337731827433
3.9324208055199005862
3.9170332205230167233
3.9038626321018301546
3.8925310198315710153
3.8823675520896023805
3.872783531407736124
3.8635734583372025597
3.8548282377618714456
3.8466310439479807215
3.8389596660695008978
3.8314463598766272945
3.8236913055316334997
3.8149942000239862594
3.8050867761689524116
6.0459465064548449931
6.0233614102627193176
6.001193315773782011
5.9790532763280364037
5.9568715454302081369
5.934783297514919731
5.9129204352617747986
5.8913293921657228225
5.8698654256084932257
5.8484748010465681389
5.8273005622712581442
5.8066496134030334275
5.786774175995690328
5.7676302019828762369
5.7488626335825410152
5.730106081878759916
5.7112199952810582815
5.6925047113561548784
5.6744644747903238979
5.6574312079847981494
5.6413977805925004105
5.6260684220244332465
5.6110259173902230501
5.5960322556965484964
5.5811343386042402415
5.5665475986357382254
5.5523348048306635505
5.5383145683439236606
5.5240671062395980684
5.509341458336568742
5.4942218254764911833
5.4791425821164398968
5.4644277091305095695
10.275955912094493883
10.1649067318826134
10.058113461022957225
9.9577484511982099491
9.8636306498153754063
9.7729621021761605704
7.2405703892227517571
7.2190311185184459219
7.1976029435104660337
7.176064287904652339
7.1544724547561839856
7.13295277443096154
7.1115980465503554342
7.0903694965675239104
7.0691747138224441116
7.0480743034990771534
7.0275569935539747846
7.0082541286104858003
6.9905453509762320863
6.9741188833782796763
6.958052037002660839
6.9415403854144104301
6.924439197091484921
6.9072183645213964809
6.8905405148075713484
6.8748642935126440534
6.8601617178694622723
6.8459624228799862422
6.8317122312748841395
6.8172096282294312175
6.8027209911730981418
6.7886448213930794537
6.7751367067872978467
6.7619364992759471988
6.7485698938128280133
6.7347543591823271214
6.7206861591615556506
6.7068154474840522283
6.693728337740515677
6.6813413734472195671
9.5178179479795961271
9.3865952525433424825
9.2662702577586806285
9.1573653530573473347
9.0557580254276910381
8.955448806016859109
8.8519153017005169914
6.6417220335360518391
6.6281396917953729897
6.6122815733741875377
6.5948884727599796918
6.576947412983808583
6.5592656275629588336
6.5422646577427769898
6.5262584406693227024
6.5118305112563952264
6.4997785191591086473
6.49062260313966366
6.4839083819746941018
6.4780539558098526598
6.4709954574017958251
6.4612677823254749399
6.4489777992096399828
6.4356500425660341236
6.4230697745505702656
6.4122290995265789348
6.4028119588339356127
6.3935902815216998363
6.3833311516932118579
6.3715958649413177994
6.3588690012716808653
6.3458973854377314083
6.3329277921515432226
6.3194856328068311768
6.3048730063401485779
6.2889790438672985573
6.2724642111334283356
6.2563296687534553087
6.2412023772074114447
6.2268801632347496877
6.2125351345912722678
6.1972081184000638032
2.2910052585376410103e-06
2.2925884706869688919e-06
2.2948952533139920179e-06
2.2998182257821577702e-06
2.304987922869187916e-06
2.3123245157664555125e-06
2.3213288320975478014e-06
2.3277247360222525238e-06
2.3413587542571327622e-06
2.3490422424016354979e-06
2.3595827229994281877e-06
0.00038672322783306117746
0.00036215959351805612678
0.00033839861869406831626
0.00031493082647822379875
0.00029086353648055392022
0.00026573707608505854876
0.00023981535100733728438
0.00021403634135542964922
0.00018957981237782442984
0.00016741132623068928631
0.00014803972884748237767
0.0001315599274955508264
0.00011777986269448531846
0.00010641028203074450831
9.7138945392735657884e-05
8.9665079099303268586e-05
8.3736074976566851548e-05
7.9093126432094784032e-05
7.5482564675170222613e-05
7.2715645058580143318e-05
7.0636016179378643704e-05
6.9125172379893575717e-05
6.8068634675244759128e-05
6.735769165327330939e-05
6.6877091265029689764e-05
6.6532651840027070092e-05
6.628469627494447034e-05
6.6085668889865006956e-05
6.5926769876988351054e-05
6.5820521427481816219e-05
6.5772207054068382434e-05
6.5771887124962402096e-05
6.5806981308027078631e-05
6.5978693176640189713e-05
6.6317715595259096634e-05
6.6581523439180812147e-05
2.4219241937191136486e-06
2.4196453686133500272e-06
2.4148458706692952609e-06
2.4106193263219240427e-06
2.4068582888528030191e-06
2.4042029902511836388e-06
2.4010117391739652012e-06
2.3974772417141307738e-06
2.3946071079646345393e-06
2.3935019110603433508e-06
2.3935075765056020047e-06
2.3943301291865331902e-06
2.3961717140037859386e-06
2.3997409190470119883e-06
2.4050531166862862441e-06
2.4114983637601326661e-06
2.4180823590917047022e-06
2.4255610443637242569e-06
2.4369326680520732972e-06
2.4429017306326239935e-06
2.4508523628515564187e-06
0.00043048179035425478091
0.00039768913099244958742
0.00036538021915103260917
0.00033414553071742974025
0.00030390377398211397553
0.00027471797775667516385
0.00024705605419594027115
0.00022155645705476212457
0.0001987437127146898146
0.00017878598649146863536
0.00016147998327955523411
0.00014638829837090001711
0.0001330622143184770627
0.00012117915190535915432
0.00011058532904575307332
0.00010123028896570775799
9.3144226158960782141e-05
8.634637998529128217e-05
8.0789277576590485261e-05
7.6367338919248266261e-05
7.2939330250019660494e-05
7.0348904879061123995e-05
6.8415706431834038322e-05
6.6982602920570853732e-05
6.5922194303076690194e-05
6.5135010947901987393e-05
6.4568236626982069551e-05
6.4162069456539749216e-05
6.3891592305750292795e-05
6.373965983662375611e-05
6.3680437438966031602e-05
6.3680348732011435092e-05
6.3723912970500387371e-05
6.3944697312770090096e-05
6.4730448105419115929e-05
6.5954882114743255636e-05
2.5347223336818870074e-06
2.5301039805687201181e-06
2.5244739218704761544e-06
2.519981893715059154e-06
2.5164294832852447694e-06
2.5124123093932934323e-06
2.5073360028370257364e-06
2.5027403677901311637e-06
2.499540356643833788e-06
2.4986492601492159308e-06
2.4987323228883393966e-06
2.4998999572062149766e-06
2.5029068608502903202e-06
2.507783528384739636e-06
2.5128873316621540343e-06
2.519433299688015804e-06
2.5235630843780030544e-06
2.5303893967153688968e-06
2.5386297028621411492e-06
2.5434440265496086663e-06
2.5513905477166309055e-06
0.00044063960150962519719
0.00040415948108070789448
0.00037017814049598082166
0.00033791038295458435299
0.00030671851869085712443
0.00027654579534995750055
0.00024793373887750088996
0.00022155900767579215539
0.00019789931675409167585
0.00017706198500635732663
0.00015885959537473900299
0.00014296300341950748166
0.00012905954623633147482
0.00011688904719092819268
0.00010629909735983864938
9.7191966866129312665e-05
8.9497749066707520072e-05
8.3130976636767617998e-05
7.7991180437913761904e-05
7.3963560693964805134e-05
7.0916932438547973993e-05
6.8704735514609217828e-05
6.71780952540351414e-05
6.6193318377216268217e-05
6.5628314307254216739e-05
6.5362040964317741809e-05
6.5269471626208764117e-05
6.5262688940730866159e-05
6.5296967092954064614e-05
6.5469172873444650873e-05
6.6051052017403088699e-05
6.6850740374881084801e-05
6.7571040045056782707e-05
6.8203514507317702085e-05
2.6492585345889470074e-06
2.6435454163928079018e-06
2.6383854916308400745e-06
2.6336192355766626494e-06
2.6278724699220197634e-06
2.6222242656164886819e-06
2.6176644640908355972e-06
2.6153476008485826528e-06
2.614732358154270103e-06