/*--------------------------------*- C++ -*----------------------------------*\
  =========                 |
  \\      /  F ield         | OpenFOAM: The Open Source CFD Toolbox
   \\    /   O peration     | Website:  https://openfoam.org
    \\  /    A nd           | Version:  12
     \\/     M anipulation  |
\*---------------------------------------------------------------------------*/
FoamFile
{
    format      ascii;
    class       volScalarField;
    location    "0.0075";
    object      k_0;
}
// * * * * * * * * * * * * * * * * * * * * * * * * * * * * * * * * * * * * * //

dimensions      [0 2 -2 0 0 0 0];

internalField   nonuniform List<scalar> 
106891
(
0.019488466341834317225
0.019479389710305036743
0.019464950369948906539
0.019457655638917246282
0.019444424052351826082
0.019437540083938040225
0.019424159304913899554
0.019417728665232066032
0.019404459356874667608
0.01939802392879188403
0.019381945240181497336
0.020535520559253134937
0.02065072356559400843
0.02071485286139364973
0.02074246334836713293
0.020750250072332568352
0.020749618319946167705
0.020735479194474108061
0.020672907243925842113
0.020509140462015205963
0.020347226848923215953
0.020220825440472267598
0.020133170734429772786
0.020079982441865630582
0.020054560402284170306
0.020045716445411383005
0.020044785265335030716
0.02005307565767318681
0.020099965805191247897
0.020257423764268728261
0.020450414800184640862
0.020600538099845945583
0.020705517186268247026
0.020766473024694184768
0.020794278264329932315
0.020806754897086717632
0.020824022271236593273
0.020854395798642642867
0.020896225720612962573
0.020944502821287479255
0.020998171215492231201
0.021057450503056154151
0.021129007199063926797
0.021215864212359426128
0.021323540978247103317
0.021449141418177015278
0.021589339984290686209
0.021735284798530235539
0.021875810049388912104
0.020642598898334099666
0.020621239832215084581
0.02060741264919101895
0.020587237911766347737
0.020573796175074727383
0.020554065779824919752
0.020541425591256753935
0.020522248282215379417
0.020510658006644300749
0.020492785032570758064
0.020482707153840082337
0.020466278392351811705
0.020457910411787780247
0.020442629116080423407
0.020434992268342954541
0.020419707932940501377
0.020412498610033410346
0.020397286602534817762
0.020389741487207360682
0.020370642896088326373
0.021968479489272156602
0.022010649615848136562
0.022024986438585979903
0.022025823694676139458
0.022018635281696782163
0.02197974378674413462
0.021842097222836295844
0.021648351233683291173
0.021491224576152313103
0.021377420202556427636
0.021302476026148403632
0.021263133880730842457
0.02124723469493929387
0.021243802858826592306
0.021246942102297522448
0.02127086636529409297
0.021366951892853126849
0.021507276117415600331
0.021610745071710721343
0.021681090081491834198
0.02173037854645956668
0.021772117380426763561
0.021816390241905670583
0.021868462915112435452
0.021927175504710492288
0.021988568106945032693
0.022047058654596076582
0.022100875475755513838
0.022150358015526672162
0.022204197262667958734
0.022268184949682232054
0.022352324696847822305
0.022457997575687855402
0.022585764642997385732
0.022730962730182428799
0.022883077697766835562
0.021711558503747577231
0.021688230117949923448
0.021673465197848726382
0.021651319404139984098
0.021636981981097019173
0.021615176323714943574
0.021601477043668954742
0.021580167694810928336
0.021567455874844692482
0.021547358846203155253
0.021536109370796502338
0.021517393407543165124
0.021507956403521221594
0.021490447075089878087
0.021481924517244337103
0.021464607656181536322
0.021456390322591688269
0.021439005344389815838
0.021430242393576735827
0.021407781403646321955
0.023012319785828221769
0.023090898111928312431
0.023147152709189485614
0.023177606887169636268
0.023187803458500876042
0.023186673617009729426
0.023167633599493649144
0.02307609678616209109
0.022877722848602958378
0.022718741546350559174
0.022614645723673602873
0.022555102784266384958
0.022528281602958378366
0.022519027943301666433
0.022517164117259864248
0.022518222530040314655
0.022524569512085600848
0.022548516519174541251
0.022615504143334637377
0.022699699504143282941
0.022784180091784015515
0.022872075412947938389
0.022966531909338443185
0.023067550023447267599
0.023172607997821739745
0.023275021641753664003
0.023369076625623954463
0.023448734555191145384
0.023513869831875935934
0.023568615195911621352
0.02362170809112608752
0.023684303803080678646
0.023763512746175385892
0.023862680703305348684
0.023978926330703895925
0.024102864085631781066
0.022809573760883078419
0.022793681235707050764
0.022769365381819676314
0.022754158767163530641
0.022730135977085848265
0.022715350025719924926
0.022691550999139619565
0.022677602691027053117
0.022655089105095064378
0.02264248522056437618
0.022621169736688848811
0.022610438486569316152
0.022590427512912011204
0.022580750794404278597
0.02256095619368669869
0.022551427842471761381
0.022531385956079695576
0.022521233439637539792
0.02249509923911269596
0.024207862119642872128
0.024268033449605600632
0.024309866405316495064
0.024331972684377266986
0.02433992500151411012
0.024340314411361554242
0.024327900681763818536
0.02426454549544903791
0.024109231794405650701
0.023970889458696516966
0.023870541521772131038
0.023807584907786012718
0.023773294024508704464
0.023759313051737177697
0.023755363456441361963
0.023755645501398352237
0.023758174479682748342
0.023764381560893794304
0.023772090957055978799
0.023787776756708997605
0.023824492251887589844
0.023906243645325609554
0.024026836004980133693
0.024175092828796946459
0.024336618378586225703
0.024491988268716947258
0.02462540153674012966
0.024726280839557090302
0.02479348740776663243
0.024831257589215387227
0.024849455568649037041
0.024862245589403694085
0.024880689965874766556
0.024919152513274967636
0.024014144422716317967
0.023986757715044451644
0.023970115300827869731
0.023943746363884649969
0.023927530985483440318
0.023901124283079628469
0.023885400578215205958
0.023859022082597696607
0.023843642162020610431
0.023818246039411145737
0.023803989578914046266
0.023779841286869059236
0.023767525887319458644
0.023744529480672574989
0.023733292762019204264
0.023710398510166215413
0.023699281425680979174
0.023676002802860401236
0.023664225668559735888
0.023634172787194856341
0.025618146841878332298
0.025603995000388523468
0.025548011521399831975
0.025409220570616463525
0.025266812072423160823
0.025141586116864188954
0.025035727269625066005
0.02494848810234878006
0.024881538290486653747
0.024835136264109537035
0.024806577752919386354
0.024793345922401736209
0.024790438747368765543
0.024792658078195028981
0.024806983561984626702
0.024861307040406160213
0.024960533819397938415
0.025040393600950734687
0.02510174300167572134
0.025162315478218833659
0.025236836975288438889
0.02533571073572508936
0.025459927383278901925
0.025601738615319832165
0.025749705133004858332
0.025888550401766585035
0.026007937815942631238
0.026101499948052941935
0.026171982423879663893
0.026228838516744661796
0.026284178308889762782
0.026350711689172107155
0.026434384176881497303
0.025222684832228826207
0.025205085278605827981
0.025176514185449670041
0.025159638828948394096
0.025131058601058506308
0.025114227772167697222
0.025085074678560435879
0.025068105182610399273
0.02503950157980771099
0.025023128096943826615
0.024995582226762045469
0.024981217658730032333
0.024954684043802501103
0.024941376315840868561
0.024914633995062163141
0.024901620275731492504
0.024874684432494676561
0.024861222324354208951
0.024827354285159627945
0.02695206367322945315
0.026753663752513007212
0.026573671906545883598
0.026420135871275052947
0.026297034191254221175
0.026204491983129102328
0.026140279327327493875
0.026100006438383629992
0.026076479961208879482
0.026065155673318411017
0.026061247261095162042
0.026063103515826687578
0.026081618382431524805
0.026153179691101504506
0.026263175228901512043
0.026350325060255756077
0.026417721832116700109
0.026474450297920261443
0.026532816591779660731
0.026606000414685939542
0.02670319534495241981
0.026826821257906009743
0.026972337529202188022
0.027128687175696591244
0.027282127991134677569
0.027419099447282484217
0.027531491898072139174
0.027616333962407417502
0.027679408124040166123
0.027730748004853179867
0.027781904990478455825
0.027841763349701023622
0.026520842381531545273
0.026502645014545817698
0.026471889977188939325
0.026454339385443153415
0.026423471225180246436
0.026405492879832286046
0.026373652685667423046
0.026355002702727912955
0.026322927997440580955
0.0263042832722209588
0.026272864944654757136
0.026255783578054591593
0.026225073029278980069
0.026208977751848511889
0.026178127925813667737
0.026163028534469060654
0.026132453981381534996
0.026117433182990260759
0.026080025133698114814
0.028115288831968530958
0.028007630330623114329
0.027907510408161112503
0.027820345117341382934
0.027750615841492080188
0.027699016524028799435
0.027664795594437723708
0.027643415146989671477
0.027629891696217361713
0.027621167445687652003
0.027614374406739600892
0.027607782101121098456
0.027600342063262190556
0.027593593138559545375
0.027588776220324375682
0.027588499524183626027
0.027591382279234806518
0.027600635334661026421
0.027628156005932533179
0.027712244300573014855
0.027911749938495961088
0.028139482700085836908
0.028372223971716969276
0.02859590034508566192
0.028795932077678026983
0.028959292600173526522
0.029081588800158989644
0.029166766291593270582
0.029224380282892523097
0.029269250046481339739
0.027871582307377764515
0.027838505722085654659
0.027820056178927271562
0.027786846283520485329
0.027767750455413540978
0.027733477816545306499
0.027713543642057823779
0.027678319825719836095
0.027657610737512817317
0.027622253647250474828
0.027602274725251264853
0.027567276195934971306
0.027548143152241407611
0.02751347320854888312
0.027496318915922704496
0.027462708056914423432
0.027446403819133841778
0.027406277026557152032
0.029584295728311886531
0.029464000798635380657
0.029340078129201009605
0.029225268314246575369
0.029128803060800845248
0.029050366989360257991
0.028989768675222432615
0.028941776969256718943
0.028902939520619511798
0.028870661675759249493
0.028846067774360311525
0.028829942941207498119
0.028821119701498722904
0.028819864062536088012
0.02882437401097309379
0.028839099682332187263
0.028881027336858312166
0.029004761972889290395
0.029202179720071035768
0.02940934200978029267
0.029632663876993349528
0.029863718330195184597
0.03009133408444835539
0.030296467391891044457
0.030463375774863472867
0.030583458734455011563
0.030656158484065523101
0.030695053482047554572
0.029391654841184011032
0.029358055337761018028
0.029338002256006443652
0.029304074351428746614
0.029284134508412891507
0.029249673606573874801
0.029229261746858702792
0.029193305973575060103
0.02917155207981367987
0.029134529563453939044
0.02911231552535899908
0.029074912486129003003
0.029053782949626221627
0.029017393405060432077
0.028998878942612476423
0.028964037646373324425
0.0289471776669307998
0.028909807261138793788
0.030782704572049544162
0.030706490206141027338
0.030637826361270128345
0.030580641069188167769
0.030536305810663313953
0.030501892491813269864
0.030474343490922806837
0.030450738385771371208
0.030431403836418725178
0.030417138677060480412
0.030408183270119994168
0.030405607371855748744
0.030410802061458075407
0.030431568806743684863
0.030489995564297975306
0.03058541630682939938
0.030690141713101196791
0.030813768275078069758
0.030964525486006731075
0.031143205374405808633
0.031340272207044668484
0.031542095345663177797
0.031731245991769074788
0.031893852984985003596
0.032022606652601051658
0.032116557912343891845
0.032185320347862339529
0.030635379029760472641
0.03059450875328484365
0.030562839197973507011
0.03052079018146969247
0.03048865562523358011
0.030445194813384406779
0.030411246204470086113
0.030365400174173995396
0.030330662543745858656
0.030283151827436089604
0.030248125469375476693
0.030201597831585276499
0.030167094141603924967
0.030123129097577604207
0.03008925748530251118
0.030047999218796396514
0.030015665506789947214
0.031162123258183550834
0.031142601803138027228
0.03114231324684932356
0.031153159206201475745
0.031198216218844731368
0.031250306085170792558
0.031281684583155749957
0.031296941435001515708
0.031300382953477527692
0.031298775550100438325
0.031294946524697511703
0.031295178057225037094
0.031308211832952001497
0.031354959158676393161
0.031406282240664357142
0.031446235469586122924
0.031484136352494487832
0.031528652621842401249
0.031591715192331358553
0.031679740422691456125
0.031797779706800165245
0.031941181812722381494
0.03210162974876883818
0.032272351786191123824
0.0324440220508124752
0.032614125915907531128
0.032784986140344578309
0.030644845455914327542
0.030612317138071973993
0.030547398305450328138
0.030512601170832476943
0.030445076957782504085
0.030408040860001719907
0.030337666011551873285
0.03029876522759889293
0.030226544583435061703
0.030187327337442428077
0.030114652677691873539
0.03007638730753734585
0.030004313553675873716
0.029967353867668591882
0.029877431242188008664
0.029885471111928914312
0.0248776518335447408
0.024844671987467748658
0.024842913893086963212
0.024859290613385199437
0.024938104487032698026
0.025054844081646876486
0.025129539124582770532
0.025168451864581838084
0.025185273719600841796
0.025199524492365198147
0.025228249046205356715
0.025283069616146527925
0.025343290093589255357
0.025394066609040834986
0.025424828101264975583
0.025439015349386265297
0.025441203593628166496
0.025439294346381726569
0.025431270945853175908
0.025427308873429980279
0.025427634518718617712
0.025436576024186089567
0.025472797035223915946
0.025591346268471225345
0.025792904909925629814
0.025992808101834841833
0.026192292136860275548
0.026394437393436158412
0.024566643686155940213
0.024505354780640978968
0.024470607502429866931
0.024407595238814791538
0.024372388488467462697
0.024308116246978327818
0.024273050136350820399
0.02420851984890429881
0.024174148554048847937
0.024110378262580813014
0.024077346870151439956
0.024014536907321356457
0.023982666716764265702
0.023905205217032245157
0.023922293403290335878
0.023334233596400428407
0.023315629176749095436
0.023309410683101293438
0.023307577263466380119
0.023307917925695184613
0.023311195826677691412
0.02332049955161382207
0.023343594654501271385
0.023407886524299655051
0.023529443756385791386
0.023647057568475252087
0.023743281972342215186
0.023810817913611011243
0.023850895268062697469
0.023871221421499125293
0.023882996699930433143
0.023899806485250800481
0.023936414456785713029
0.024016932500660212457
0.024132120138580886309
0.024271487155124032986
0.024422906577434913555
0.024567413715037900168
0.024693743337673264987
0.024792953664931480923
0.024865287237644032731
0.024920389231503328048
0.023051745432267466834
0.023026441414205116309
0.022979691180365968695
0.022953171176105638396
0.022905487925635160951
0.022879168221844804754
0.022831760069056246387
0.022806337434960757826
0.022759619897811216027
0.022735650471686987689
0.022690401757551950657
0.022667451400247982246
0.022614263759628844969
0.022608717607933460914
0.022569055825722859204
0.022561351971797195121
0.022559717716590918513
0.022564184021657284623
0.022584892356507419581
0.022604937362760153807
0.022615675976335285202
0.02262437781761060529
0.022637263244715807864
0.022666314861437827227
0.022731093816561003668
0.022793432178264599886
0.022839098748441540032
0.022870670775985393192
0.022897555410526987396
0.02293654532447160499
0.022997905109504220705
0.023087370818552912372
0.023199322010199786848
0.02332071706227093616
0.023437649020796223753
0.023534686097799240034
0.023608295471360635914
0.023657270282821329932
0.023692663471242825235
0.023728713918726131865
0.022212191731211344131
0.022167996467343291378
0.02214305116750565558
0.022098013505577600302
0.022073408355651028684
0.022028787316954220876
0.022005182093188933867
0.021961308490756312889
0.021939025419297288749
0.021896159013481290845
0.02187449188618877452
0.021825348077708372346
0.021816676463471063735
0.021889733268314531811
0.02189719321799304258
0.021899594479125872315
0.021899354933814580565
0.021897556870009077246
0.021889973809454375125
0.021872937775075734779
0.021858847878176480145
0.021847574753002280135
0.021840386973790069242
0.021836156532942945646
0.021835362834368880064
0.02184178987703953162
0.021873606122345595759
0.021976430315894114609
0.02212906297630460456
0.022279129992134848182
0.022419174006292896806
0.022541174028343415048
0.02263924373369026119
0.022709377127266339169
0.022757558103075507111
0.02278958326860103939
0.022820388316963223507
0.022862214207767232732
0.021323951747710657989
0.021300101547632514093
0.02125699795632735728
0.021233563773531312358
0.021190875048504569794
0.021168430383494290375
0.021126024308853252193
0.021104537976636236762
0.021062737724508229231
0.021041686560273317741
0.020993509071986847514
0.020985064120528321152
0.0209215253344186905
0.020968720487739334751
0.021003763545665500578
0.021025420956293724289
0.021037426358386797365
0.021043938777491538045
0.021047399212595782614
0.021050198363312924016
0.021056067468196035253
0.021081763588886037047
0.021173071462287803429
0.021286534997348265791
0.021365887425367317831
0.021418208942673915701
0.021455363105921027023
0.021492391263928968537
0.021540324184491449477
0.021600148506597950659
0.021670719657015377613
0.021740665133565935385
0.021805546524357188182
0.021859449611684886317
0.021907753262649088538
0.021957294591244406329
0.020118352078172689612
0.020166749025455885103
0.020196753938298173114
0.020213400309360272933
0.020221932551256798644
0.020227705826429440844
0.020234657356292908015
0.020251845849693264623
0.020311518673961321407
0.02044279357088189461
0.020562893524226258379
0.020656033573301021966
0.020726073052049244494
0.020778340417913088861
0.020823275456310921805
0.020868384722557930394
0.020916607593782443608
0.020970147924663219002
0.021022770362309269043
0.021073950991239345093
0.021121004368990690947
0.021168390157383171202
0.02122171979161729255
0.019540858084502787939
0.019541791527568682513
0.019542342627121657428
0.019542580879679347095
0.019543861899588892139
0.019549614575894769253
0.019577017154459183668
0.01964157585774996273
0.019703875542583161595
0.019761397839240326529
0.01981970725296795105
0.019884033796938770794
0.019957450581726102895
0.020039046684929246595
0.020124426035600502527
0.020207728886348735181
0.020281712544363516421
0.020345747992315452862
0.020397874837524792441
0.020444711747812344127
0.020494290880826056267
0.018848184223799639009
0.018867546252468683776
0.018894571448479877129
0.018917950575185814993
0.018936869242259794094
0.018955537465433405092
0.018984072257267989303
0.019033473398120771131
0.019111817070490165482
0.019221997355897278009
0.019357485090401919253
0.0195062981635686708
0.019649918200911005439
0.019773194335295785073
0.019865801028631276809
0.019923962735285703773
0.019955826395885781915
0.018174375402247509165
0.018179147529604880451
0.01819643918690176318
0.018247006137056459574
0.018353370896572563514
0.018481792033619194593
0.018628638210415549015
0.018784876044663875727
0.018936839424268256393
0.01907370624837482348
0.019186576610421186145
0.019273123377985753452
0.019338254457803204234
0.017879414238549516669
0.017882775687495980343
0.017887439809612319663
0.017898418143916017264
0.017929820935178038266
0.018008879203068688807
0.018102377638410705601
0.018190834636467725222
0.018269630439149302237
0.018333996050408626899
0.018386607766329679525
0.018434588372397579803
0.012655734696625488278
0.011911947153434009408
0.011134709562788178486
0.010583686078210778267
0.010199279604756595827
0.0099258026387052909756
0.0097303101680144572089
0.0096000364843916875107
0.0095297523639356739728
0.0095080088324257308607
0.0095115946355704555915
0.0095554364118984203708
0.0097554184183582925288
0.010493087792554089965
0.011730297222294464726
0.012666335557233066034
0.01325424753091813436
0.013549738838641446625
0.013654552963661692466
0.013668741672766864664
0.027650310452111640652
0.0271215869737635
0.025531793352604071484
0.023863319501562441777
0.022635080981798869765
0.021743525473620801958
0.021106221303872279432
0.020664066090231643369
0.02039036061566721833
0.020259569575347986109
0.02023245088617137491
0.020251303709844736822
0.020376596917731130965
0.020874820547014276417
0.022441228912885968771
0.0242733441889613627
0.025559106772106199995
0.026302903169941348194
0.026628278075567987648
0.026709146473390742854
0.026705532375509599685
0.026654743875387281599
0.080297851334055647676
0.080006090649011388227
0.078803506236786904915
0.075714284002979082011
0.072678232004481049811
0.070400723684157423543
0.068881121791312630021
0.068030669333317236869
0.067667276686598096247
0.067593149857580109297
0.067613799021356252306
0.067767596503323090928
0.068295767774785923199
0.069905192619734754511
0.072709575989552660547
0.07513606717230371379
0.076814688768882366521
0.077671275106761750173
0.077893051011126826499
0.077880132923321826466
0.077771549835364370273
0.077468790729507713833
0.076676236851382348347
0.075315088079664582743
0.073667942128983032735
0.071820032970779157377
0.39542601725343456964
0.39108486247943125003
0.38323093336840002854
0.37776522994151201518
0.37485442759738896168
0.37391579531302493455
0.37385981444634441839
0.37422055217684269124
0.37543909418642534837
0.37791052972738164994
0.38196682427994316233
0.3879800943819050052
0.39608203006035069826
0.40494932339712308433
0.41317961362195337882
0.41913618365713956049
0.42210369805438052726
0.42266302472418615377
0.42244802715260409975
0.42134876000468679536
0.41780832946625862112
0.41254916582115319645
0.40817313606975386131
0.40471785246684444104
0.4019061677908880581
0.39968887188323037885
0.39806599204999115749
0.39705964513396502236
1.8005313400071529806
1.7850800625277898348
1.7733141690720342076
1.7660544341123838308
1.7630259700380424004
1.7625284189359076148
1.763570961982839691
1.7687388197962670144
1.7773385352068500342
1.7856031507594283259
1.7946068328514730439
1.804021817205428313
1.8134226312351298116
1.8210812900210540111
1.8255896313074038151
1.8268579671734865855
1.8267248715777677504
1.8248461878290540561
1.8181544912642564338
1.8064538477262910288
1.7957386041800911247
1.7863559007254035116
1.7782404176359900561
1.7714557926476446337
1.7657474396445032028
1.7614333278141502959
1.7581947765918140014
1.7566377238074903921
1.756452524128316206
1.7571986783846269553
4.1529492568381947137
4.1377510447396490534
4.1262226580183041236
4.1171971658701167485
4.1091818775406290243
4.1009727990352908833
4.0920284063606828795
4.082475448045687294
4.0727529353014579883
4.0631248976287617225
4.0534772293922971542
4.0434110189739875807
4.0322607623112896036
4.0193172902571765448
4.0041388375000348532
3.9868615248821073216
3.9683090629296242646
3.9497580485605028322
3.9323840088660624303
3.917008389483775499
3.9038506959210774738
3.8925261377077498004
3.8823623211275588574
3.8727750922887631546
3.8635653305117614309
3.8548256417355601933
3.8466355994970733434
3.8389667401588551954
3.8314479033158144183
3.8236820116084051513
3.8149748692737479594
3.8050626717786091291
6.0459944068914550641
6.0234073278579884914
6.0012248994243293509
5.9790676548253518519
5.9568737173593770962
5.9347801241417963425
5.9129149488619781039
5.8913203035997279144
5.8698496803910282793
5.8484561854648111634
5.8272910823407482184
5.8066621645710077004
5.7868127160852740332
5.7676824111041824494
5.7489097135385165416
5.7301312982126031415
5.7112218494819373404
5.6924965520885750792
5.6744626635100576806
5.6574446346679154729
5.6414237243925020593
5.6260966712921689492
5.6110471108624793146
5.5960457548953259632
5.5811480398419899274
5.5665688456650963545
5.552363214543674097
5.5383408754264804585
5.5240805940683586073
5.5093389927175300258
5.4942121767790474962
5.4791378680003042234
5.4644375855944291587
10.275735716754230253
10.164720517478917472
10.058042780898841073
9.9578236018720183154
9.8637902464498772304
9.7731023993999528443
7.2406740117282915037
7.2191241083180450744
7.1976745262663150982
7.1761162757367475962
7.1545142111456545564
7.1329919621079813652
7.1116348688304160675
7.0903981172677852385
7.0691911802313835977
7.0480866348558430801
7.0275850802392607619
7.0083173196412795747
6.9906478805902176887
6.9742383426382321687
6.9581548923884923852
6.9416073453354645295
6.9244744996898379696
6.9072442918174008497
6.8905794467247032387
6.8749274923052992037
6.8602428146359377692
6.8460433096243331619
6.8317802227703738893
6.817267123454062272
6.8027810921923252963
6.7887174071166631606
6.7752175668396237285
6.7620102949228577671
6.7486234927558284014
6.7347893794036393089
6.7207166412960051005
6.7068603003791125161
6.6937980543896289376
6.6814308391036991708
9.5176938057606932375
9.3867051108178127805
9.2667194779405015481
9.1580743720378983141
9.0565217988268091887
8.9560582534371047103
8.85226226494678059
6.641998349267961288
6.6283303357611735862
6.6124053883150768485
6.5949817838436235462
6.5770427318306978748
6.5593818003369808167
6.5424106137979824993
6.5264454823052400201
6.5120800797133160387
6.5001143455446435127
6.4910505725235942975
6.4843952229088754891
6.4785330070376287992
6.4714001919349994907
6.461568791531724365
6.4492047759894335357
6.4358648427949463056
6.4233249002026999719
6.4125382700299331518
6.4031498909902300198
6.3939168698824397907
6.38361971875328571
6.3718498713592248706
6.3591106398411731959
6.3461426946839658569
6.3331688507714352099
6.3196992973664354309
6.3050439354930114533
6.2891201120418713799
6.2726092002475892784
6.2565104194683236472
6.2414250951687124669
6.2271197920555749761
6.2127523739480974285
6.1973726020480857102
2.2908976383739701958e-06
2.2924865751422153226e-06
2.2947993599114510063e-06
2.2997290880819761006e-06
2.3048971542820266065e-06
2.3122330434895318658e-06
2.3212158582258211401e-06
2.3276059555217507622e-06
2.3412361718958586258e-06
2.3488939178054439797e-06
2.359476872203726655e-06
0.00038661874380270202416
0.00036205826929881546094
0.00033830089734846716283
0.00031483314229496588924
0.00029076239068165094914
0.00026563164543359725272
0.00023970803818340361241
0.00021393168079602531656
0.00018948246902079080565
0.00016732461023100575395
0.00014796515802554451057
0.0001314973447995806293
0.00011772805277316730082
0.00010636776048809381038
9.7104285187079623855e-05
8.9637020648653979249e-05
8.3713639846934282426e-05
7.9075536830333140984e-05
7.5469088719669216942e-05
7.2705495416692156232e-05
7.0628526721559965491e-05
6.911980298363468991e-05
6.8064777394697989921e-05
6.7354757228138908715e-05
6.6874784935036317955e-05
6.6531007920400707985e-05
6.6283686411487181432e-05
6.6085085083279101179e-05
6.5926468940831145309e-05
6.5820454785615311872e-05
6.5772322063066529898e-05
6.5772035180882302478e-05
6.580735569476453778e-05
6.5980019238408041892e-05
6.6318989824125398305e-05
6.6582460872887617108e-05
2.4218237087124926369e-06
2.4195195538393541394e-06
2.414721954054998862e-06
2.4105066883427787289e-06
2.4067562590163962499e-06
2.4041022314247138944e-06
2.4009007007165887717e-06
2.3973553458490724138e-06
2.3944814567432377142e-06
2.3933794246926545585e-06
2.393388677460799196e-06
2.3942255493082858135e-06
2.3960790810694216035e-06
2.3996596287121482007e-06
2.40497548366387346e-06
2.4114134244632676218e-06
2.417982673487794957e-06
2.4254612917549920042e-06
2.4368183750799670705e-06
2.4427630597755023615e-06
2.4507576144236444652e-06
0.00043034579811980277824
0.00039755293605588879749
0.00036524892124522554153
0.00033401926463741231366
0.00030378178070911832217
0.00027460101590765097863
0.00024694635892969309977
0.00022145646851565953879
0.0001986549259303671685
0.00017870851910022496041
0.00016141275681694902742
0.00014632953195785661747
0.00013301011023312685503
0.0001211325413604942661
0.00011054374246401111812
0.00010119366207954618125
9.3112732798402862624e-05
8.6320203106523407796e-05
8.0768273948123622385e-05
7.6350946835450510578e-05
7.2926799360800248452e-05
7.033943579612683824e-05
6.8408476793652776816e-05
6.6976981448329687822e-05
6.591788323705213956e-05
6.5131927992990160852e-05
6.4566208679266200512e-05
6.4160810502664463524e-05
6.3890901980462054045e-05
6.3739400418476825768e-05
6.3680465676273570463e-05
6.3680450715633706471e-05
6.3724328857056212355e-05
6.3946392310005079778e-05
6.4735441020651973525e-05
6.595982430145567565e-05
2.534622061866874409e-06
2.529968539325460376e-06
2.5243438539851139935e-06
2.5198602763951926532e-06
2.5163121305622173861e-06
2.5122893746907645381e-06
2.5072046691431339572e-06
2.5026044764849561278e-06
2.4994058154268543903e-06
2.498520961438652953e-06
2.4986115051869331948e-06
2.4998017435678422593e-06
2.5028311733948828348e-06
2.5077173079748382912e-06
2.512822696994606055e-06
2.5193548517367697833e-06
2.5234675835770088998e-06
2.5302946917441201956e-06
2.5385227434851062977e-06
2.5433250155417568402e-06
2.551320209632883929e-06
0.00044048225877632107925
0.00040401423444940201546
0.00037004240166179730659
0.000337780387316063697
0.00030659249839279188862
0.00027642464183372223276
0.00024781999204158649923
0.00022145510635973429279
0.00019780664893162932172
0.00017698070739475258687
0.00015878876047595435615
0.00014290111719942141149
0.00012900525647914016093
0.00011684146049818984784
0.00010625768544265347859
9.7156423476373721506e-05
8.9467932377840613521e-05
8.3106671217446573675e-05
7.7971923910301023852e-05
7.3948708718241988277e-05
7.0905817359799403919e-05
6.869671334699104957e-05
6.7172598759964081711e-05
6.6189900676865093352e-05
6.5626541514689505684e-05
6.5361368778026290947e-05
6.5269390387629207099e-05
6.5262822180671770035e-05
6.529742490678828407e-05
6.5470662603157829128e-05
6.6054654958971038511e-05
6.6854099837650158059e-05
6.7573991935015475011e-05
6.8206102453355278888e-05
2.6491270926377872134e-06
2.6434104059290260719e-06
2.6382492002679382922e-06
2.6334800530431150635e-06
2.6277288459618454886e-06
2.6220792846185763903e-06
2.6175222377808962083e-06
2.6152112095773040617e-06