/*--------------------------------*- C++ -*----------------------------------*\
  =========                 |
  \\      /  F ield         | OpenFOAM: The Open Source CFD Toolbox
   \\    /   O peration     | Website:  https://openfoam.org
    \\  /    A nd           | Version:  12
     \\/     M anipulation  |
\*---------------------------------------------------------------------------*/
FoamFile
{
    format      ascii;
    class       volScalarField;
    location    "0.0075";
    object      nut;
}
// * * * * * * * * * * * * * * * * * * * * * * * * * * * * * * * * * * * * * //

dimensions      [0 2 -1 0 0 0 0];

internalField   nonuniform List<scalar> 
106891
(
8.0246529574720708777e-06
8.0172100530023691732e-06
8.0086707424787811758e-06
8.0016090966266736575e-06
7.9933350642474635495e-06
7.9863737098047462231e-06
7.9780847774893724902e-06
7.9712299734664993767e-06
7.9629785860788128866e-06
7.956133843427482273e-06
7.9473174714750936603e-06
1.0416610528532155652e-05
1.0438595544775304745e-05
1.04475755293001548e-05
1.0447302788131688491e-05
1.044202176288216882e-05
1.0434621167515745053e-05
1.0423856128193064583e-05
1.0400981909514573728e-05
1.0352586333020499963e-05
1.0304438374388906331e-05
1.0265205441958923598e-05
1.0235778829401252711e-05
1.0215122751736343404e-05
1.0201552432996980761e-05
1.0192218679273802666e-05
1.0184906960209860394e-05
1.0179921068403571726e-05
1.0184660660121103791e-05
1.0217240289240818368e-05
1.0258699721161968659e-05
1.0289181086513694876e-05
1.0308250154278090523e-05
1.0316285825327833463e-05
1.0316045695151810591e-05
1.0311975681564649837e-05
1.0309074410023801025e-05
1.0309406283338925784e-05
1.0312558015218548064e-05
1.031728196069295774e-05
1.0323308017156823576e-05
1.0330679249570973521e-05
1.0341017952208036876e-05
1.0355041374424526468e-05
1.0374064595316289639e-05
1.0397340037065926939e-05
1.042401889484052836e-05
1.0451934759257230592e-05
1.0478398160107106908e-05
8.5267649762075106246e-06
8.5164358706049011609e-06
8.5076691315027934886e-06
8.4976002725573196195e-06
8.4889282067094758394e-06
8.4789654358188400109e-06
8.4704715568421296771e-06
8.4606357305124292622e-06
8.4523698695348136681e-06
8.4428160852607375849e-06
8.4348751956989692944e-06
8.4256342218490359696e-06
8.4180608250769067895e-06
8.4090737224315309473e-06
8.4016676586925076209e-06
8.3926976295710652718e-06
8.3853943658229907631e-06
8.3764562924639237852e-06
8.3690969439620545951e-06
8.3593735489126484961e-06
1.1046503455986117839e-05
1.1049467135713276857e-05
1.1045414105834558668e-05
1.103796128650039529e-05
1.1028510427498709469e-05
1.1011173162944993552e-05
1.0969151058130528694e-05
1.0912793283917701149e-05
1.0865527539733800351e-05
1.0829152672440100385e-05
1.0802608964480141086e-05
1.0785107325713414852e-05
1.0773575462274954302e-05
1.0765222637430466935e-05
1.0758537314627259274e-05
1.0757077590667608622e-05
1.0773754904888667981e-05
1.0801588407244898436e-05
1.0820057648953317438e-05
1.0830157059980504442e-05
1.0834946650711758229e-05
1.0837816482619259953e-05
1.0841285623366954909e-05
1.0846664610602045612e-05
1.085366276156300487e-05
1.0861295754488673785e-05
1.0868182011334924923e-05
1.0873885345275979293e-05
1.087848914089694193e-05
1.0884127432333170341e-05
1.0892211854098507066e-05
1.0905170772143250705e-05
1.0923307929165778274e-05
1.0946714882952104139e-05
1.0974214385746402768e-05
1.1003230840369205586e-05
8.9721539674391889447e-06
8.9611071646139402793e-06
8.9518373397626629825e-06
8.9410521390149068913e-06
8.9318871542810063268e-06
8.9211879703035931342e-06
8.9121683904693577773e-06
8.9015850515399527109e-06
8.8927808642991744165e-06
8.8824606290971490569e-06
8.8739712490669472308e-06
8.8639513567972226532e-06
8.8558515899057609506e-06
8.8460992398678913324e-06
8.8382058304758975294e-06
8.8285130657549838734e-06
8.8206992732404001286e-06
8.8110114628025013272e-06
8.8031003755473567442e-06
8.7923839877919177023e-06
1.1599880749248078207e-05
1.1611633202235671544e-05
1.1617728509123082076e-05
1.1617320019828532497e-05
1.1611816714425207792e-05
1.1603472107021023876e-05
1.1590686942416684419e-05
1.1559869319915863102e-05
1.1502113593231205296e-05
1.1454069364293530364e-05
1.1419814028782520354e-05
1.1396811258681626742e-05
1.1382097162395640958e-05
1.1371843460441637694e-05
1.136347177286807347e-05
1.1355846138016295271e-05
1.1349552712671262731e-05
1.1347670943257117646e-05
1.1356579678218101676e-05
1.1369800567273534057e-05
1.1383023547871823992e-05
1.1397027278701417349e-05
1.1412590765945913103e-05
1.1429707134376976949e-05
1.1447746245247874489e-05
1.1465056266103036578e-05
1.1480237617128029223e-05
1.1491820710299866372e-05
1.1499791923526751178e-05
1.1505177663436031755e-05
1.1510120064397671874e-05
1.1517337829649207281e-05
1.1528548220087616067e-05
1.1544538577626315467e-05
1.156458056128572824e-05
1.158638249940105642e-05
9.4288190435578228484e-06
9.4189907748075575459e-06
9.4074316490847802213e-06
9.3977632051550124079e-06
9.3862821348964115968e-06
9.3767153844332034088e-06
9.365294591726649559e-06
9.3559124839444418809e-06
9.3447701134898080106e-06
9.3356787501782966573e-06
9.3247992673560376478e-06
9.3161105720708325641e-06
9.3055201153116881221e-06
9.2970682457838504324e-06
9.2865445711873034935e-06
9.2781420381823106851e-06
9.267588124246295704e-06
9.2590736264335993857e-06
9.2472829486829956379e-06
1.2198334620374182277e-05
1.2205033058506667467e-05
1.2207085349560782914e-05
1.2204162800459547272e-05
1.2197682146464752098e-05
1.2189310217131089808e-05
1.2177772948461685707e-05
1.2153567458508088791e-05
1.2106258613776770013e-05
1.2063055384328485843e-05
1.2029377651536425864e-05
1.2005117624119092864e-05
1.1988103331525615236e-05
1.197623529325345832e-05
1.1966919244441010742e-05
1.1958685230100598242e-05
1.1951021297253329847e-05
1.1944284944054250504e-05
1.1937922385477047128e-05
1.1933549269992825177e-05
1.1934416775273682279e-05
1.1946513993635372259e-05
1.1968254223550005495e-05
1.1996764346296254122e-05
1.2028420776095230096e-05
1.205840296651330577e-05
1.2082843771660613092e-05
1.2099198381186226207e-05
1.210724433917940571e-05
1.2108062690051114342e-05
1.2104088062809312848e-05
1.209878675244670941e-05
1.2094854644653973204e-05
1.2095766484814163258e-05
9.9330578924304392322e-06
9.9204998573717584635e-06
9.9101739019969049279e-06
9.8978479565288511843e-06
9.8876304561052738514e-06
9.8753156381301596367e-06
9.8652156156870390174e-06
9.8529219690737754073e-06
9.8429053003048187645e-06
9.8308279642662404265e-06
9.8210567205934147636e-06
9.8092529424807649074e-06
9.7998994336948396888e-06
9.7883542160935074598e-06
9.7792436672943858895e-06
9.7677430201547904841e-06
9.7586772443062001732e-06
9.7471197928882504559e-06
9.7379359971318317876e-06
9.7250015223196976293e-06
1.2875022679776227107e-05
1.2862563164872732024e-05
1.283964471267783838e-05
1.279588202982506821e-05
1.2751084635729870547e-05
1.2710594604593278205e-05
1.2674989734608723628e-05
1.2644098178886974519e-05
1.2618348611239244673e-05
1.2597810710022105864e-05
1.2581799891649280503e-05
1.2569681935653473552e-05
1.2560195334737168381e-05
1.255202077503760565e-05
1.2546905678991385728e-05
1.2551855286294372595e-05
1.2568154821942157837e-05
1.2579527787709254258e-05
1.2586190307965781433e-05
1.259260164891641128e-05
1.260244841861936226e-05
1.2618309415740108502e-05
1.2640394653602199883e-05
1.2666737343683106485e-05
1.2694477952820515553e-05
1.2719847256730121293e-05
1.2740329420849056733e-05
1.2754398587857887967e-05
1.2762757528813873409e-05
1.2767736748421290113e-05
1.2772300889666378431e-05
1.2779544939277622526e-05
1.2790901961415887699e-05
1.0437403721139686382e-05
1.0426518935343626664e-05
1.0413376278326912189e-05
1.0402663152253113459e-05
1.0389539801530936421e-05
1.0378853789920283336e-05
1.0365628971729901495e-05
1.0354927966584002714e-05
1.0341831372816896053e-05
1.0331267840842640974e-05
1.0318406081208539193e-05
1.0308274949778541569e-05
1.0295643489638280665e-05
1.0285751587293084079e-05
1.0273100376118219159e-05
1.0263289406769243516e-05
1.0250621521449022528e-05
1.0240736843029661377e-05
1.0226659500230983241e-05
1.3540156378744564326e-05
1.3480871304451001055e-05
1.3426096141834520956e-05
1.3377926702993851648e-05
1.3337426046663639537e-05
1.3304670396659750193e-05
1.327911876461157339e-05
1.3259665172548565376e-05
1.3244477191212746669e-05
1.3232392142811408661e-05
1.3222195772351886842e-05
1.3213465476322188794e-05
1.3208936870739010821e-05
1.321778185878012406e-05
1.3236363490200122898e-05
1.3249125426092661626e-05
1.3256862783500727196e-05
1.3261874757905331519e-05
1.326725222705275791e-05
1.3276286430839553178e-05
1.3291248773395513254e-05
1.3312702793868357745e-05
1.3339476288109177777e-05
1.3368797219273848278e-05
1.3397266402157558638e-05
1.3421569605740977778e-05
1.3439755149210240659e-05
1.3451132646083570707e-05
1.3457142279240670891e-05
1.3460249923158846882e-05
1.346327829465834932e-05
1.3468389122724871962e-05
1.0980941831891588564e-05
1.0969552986536870975e-05
1.0955577305299045749e-05
1.0944345486136097459e-05
1.0930369612823422624e-05
1.0919069682402502558e-05
1.0904912551779405712e-05
1.0893490352603447149e-05
1.0879301832818975872e-05
1.0867896370627265929e-05
1.0853860550289897666e-05
1.0842795882060365356e-05
1.0828926822608896287e-05
1.081808617785588271e-05
1.0804210295748134659e-05
1.0793595144790052667e-05
1.077979906340712151e-05
1.0769219690469012532e-05
1.0754035320100640308e-05
1.4178939833580445279e-05
1.4141943620817684437e-05
1.4106837507278433263e-05
1.4074997494916338388e-05
1.404757190402137458e-05
1.4024748242555534219e-05
1.4006342102540105999e-05
1.3991204007007922093e-05
1.3978067985494726811e-05
1.3966152572012940664e-05
1.3954733135464370577e-05
1.3943371531091531596e-05
1.3931802373621655471e-05
1.3920413988629620847e-05
1.3909520036210745847e-05
1.3899781110049788357e-05
1.3890845726079932925e-05
1.3883519662235927156e-05
1.3880767637280783339e-05
1.3892126678450236071e-05
1.3932270497437523454e-05
1.3979278159729021145e-05
1.4027230039892914549e-05
1.4072664125692636787e-05
1.411204300187156744e-05
1.4142249949062228674e-05
1.4162293031095549278e-05
1.41732002718916283e-05
1.4177343181097609137e-05
1.4178354502782677905e-05
1.1541820742959408213e-05
1.1526962308126766939e-05
1.1515144446227857533e-05
1.1500283689759592304e-05
1.1488354936481111318e-05
1.147329734182453438e-05
1.1461215822764008962e-05
1.1445982450439000076e-05
1.1433758808019833472e-05
1.14185158278247068e-05
1.1406460154898945118e-05
1.1391309812490020537e-05
1.1379446822709051774e-05
1.1364383690989626611e-05
1.135294873641489023e-05
1.1338127163119232892e-05
1.1326888918868781956e-05
1.1310746346421392285e-05
1.4912511502309075924e-05
1.4871852632196729313e-05
1.4830242888313417064e-05
1.4790906365319573068e-05
1.4756202178695339004e-05
1.4726073322778811985e-05
1.4700485714504959287e-05
1.4678117344005500144e-05
1.4658086742189929219e-05
1.4639725989710759675e-05
1.4623312611575676133e-05
1.4609046382902366351e-05
1.4596635513473035401e-05
1.4586154307377477426e-05
1.457714273693608551e-05
1.4570723119625213446e-05
1.4571149427253402575e-05
1.4592086914950314408e-05
1.4631486103840906886e-05
1.4673089182975515245e-05
1.4718453981022149509e-05
1.4765460104356212541e-05
1.4811348948046765609e-05
1.4851472643152125418e-05
1.4882047848109793169e-05
1.4901060965782637378e-05
1.4908447010667615613e-05
1.4907559247171327956e-05
1.2160595193905770356e-05
1.2145202685796514726e-05
1.213262561301587186e-05
1.211719240419843841e-05
1.2104664300338139794e-05
1.2089147631290529439e-05
1.2076546627770646841e-05
1.206074554091439072e-05
1.2047887566119824972e-05
1.2031885467055244187e-05
1.2018948693594806604e-05
1.2002883793523387446e-05
1.1990185652739331897e-05
1.1974346768423074422e-05
1.1962206433175017701e-05
1.1946709845113313034e-05
1.1934933788822715508e-05
1.1918941380612612453e-05
1.5596258165520365205e-05
1.5566121316959770235e-05
1.5537899195382738263e-05
1.5512595813927278611e-05
1.5490572196104634734e-05
1.5471092205212440501e-05
1.5453379774719599207e-05
1.5436684713799659106e-05
1.542107524522411764e-05
1.5406745150586268671e-05
1.53937524786173122e-05
1.538237462643076068e-05
1.5372964309097153881e-05
1.5367490343684733864e-05
1.5371504197384732528e-05
1.5384848785853021369e-05
1.5400472139702972997e-05
1.5420736778247452856e-05
1.5447656961323517005e-05
1.5481377056247501661e-05
1.5519477679833989749e-05
1.5558558183244968734e-05
1.5594327467936390405e-05
1.5623417756570241879e-05
1.5644096259896695278e-05
1.5656185680593341349e-05
1.5662071639441124248e-05
1.2729224315863123433e-05
1.2711897779075766136e-05
1.2696498344574658741e-05
1.2678957495296291005e-05
1.2663491581245528406e-05
1.2645687506020954853e-05
1.2629871895110940345e-05
1.2611595646495023172e-05
1.2595635828852041557e-05
1.2577030937772941199e-05
1.2561025182332292475e-05
1.2542639567633255435e-05
1.2526758374090624112e-05
1.2508925018432385449e-05
1.2493197846189515261e-05
1.2475951903560246416e-05
1.2460574321871348819e-05
1.6111264633878289462e-05
1.6095006471708949136e-05
1.6083751072750869754e-05
1.6075358225087249309e-05
1.6075765531729239359e-05
1.6078028738695113257e-05
1.6074955206479420405e-05
1.6067738669557243391e-05
1.6057489405091270761e-05
1.6045945738023226993e-05
1.6033822320596785729e-05
1.6022729993840115849e-05
1.6014886826685125181e-05
1.6015652692632663043e-05
1.6017629484477024794e-05
1.6016697947565502666e-05
1.6015233060834731975e-05
1.6015428198983440845e-05
1.6020293229496066178e-05
1.6031428205989736057e-05
1.6050076279660468754e-05
1.6075023363687101672e-05
1.610413424535655442e-05
1.6135678180207115213e-05
1.6167304605080348555e-05
1.6198380528950817651e-05
1.6229480058556668018e-05
1.3053189034467970085e-05
1.3037205327120117567e-05
1.3014339735515682863e-05
1.2997905099814957149e-05
1.2974512961917190082e-05
1.2957628711923427592e-05
1.2933649912460657105e-05
1.2916387176057100795e-05
1.2892027746121993963e-05
1.2874712251037822802e-05
1.2850268111341447947e-05
1.2833173358883643756e-05
1.2808875458371091912e-05
1.2792085145080793918e-05
1.2763997268059908881e-05
1.2756845306590291553e-05
1.2531742961268022509e-05
1.2514683928186934184e-05
1.2505536099068827074e-05
1.2500936648807131754e-05
1.2511950618289753063e-05
1.2532517304094977758e-05
1.2542509045520726496e-05
1.254353118499164592e-05
1.2539025937173168363e-05
1.253386429368499336e-05
1.2532281552276692898e-05
1.253716238870121066e-05
1.2543365934438483898e-05
1.2547216649342631239e-05
1.2546113011850797917e-05
1.2540917038847418179e-05
1.2532763400954778819e-05
1.2523603778295281386e-05
1.2512941226251079544e-05
1.2503268872151004749e-05
1.2494656897476117872e-05
1.2488151266150860128e-05
1.2488309316255209177e-05
1.2508517681059023633e-05
1.2548942773252795584e-05
1.2588734387183051202e-05
1.2628176296246188486e-05
1.2668011721675242112e-05
1.0167143902479372199e-05
1.0147410823414964418e-05
1.013318288077399877e-05
1.0113110537482393944e-05
1.0098805651082490891e-05
1.0078483868982559567e-05
1.0064221068210811157e-05
1.0043854093792305203e-05
1.002974774551219972e-05
1.0009548396059955803e-05
9.9957361903150946227e-06
9.9757506373672699224e-06
9.9622003531903562552e-06
9.9391852452186084111e-06
9.935829998200928489e-06
1.1897041799751107615e-05
1.1884021042128114525e-05
1.1874178180061085267e-05
1.1865464275372635466e-05
1.1857308630072263905e-05
1.1849898476722337643e-05
1.184401779902398236e-05
1.18416268219022841e-05
1.1849620969093656599e-05
1.1872085979377774444e-05
1.1893476940980717113e-05
1.1909407200535084822e-05
1.1918083327612051241e-05
1.1919852860159165642e-05
1.1916667959992707475e-05
1.1911335119546160718e-05
1.1907242588109420576e-05
1.1908049708710419728e-05
1.1919725819400564577e-05
1.1939944133358548756e-05
1.196603066411284568e-05
1.1994955689291032918e-05
1.2022048039237375619e-05
1.2044574455918187985e-05
1.2060397441228282267e-05
1.2069619543379795048e-05
1.2074614051807553398e-05
9.6541637745595668238e-06
9.6421738358615822638e-06
9.6257011080364904011e-06
9.6134713385057120739e-06
9.5968147476488564464e-06
9.5846387492017043303e-06
9.5680513763917346718e-06
9.5560775842498169898e-06
9.5396501172463778586e-06
9.5279984743116457116e-06
9.5118977756057128533e-06
9.5004808854867067621e-06
9.4827347118866818065e-06
9.4749864255233199424e-06
1.1469240965635677551e-05
1.1459312782359427115e-05
1.1450938068759601728e-05
1.1444105986122121558e-05
1.1441379182173330392e-05
1.1438508123136668527e-05
1.1433280054936041011e-05
1.1427539276956877055e-05
1.1422856103045606841e-05
1.1422232598499067123e-05
1.1430588935698898399e-05
1.1438324225533605692e-05
1.1441844533454009609e-05
1.1441808229684880742e-05
1.1440574707877006942e-05
1.144233913924842916e-05
1.1449648737102052762e-05
1.1463901027036297125e-05
1.1483659833359729108e-05
1.1505662388225687854e-05
1.1526470417360062097e-05
1.1542308135211128871e-05
1.1552344971581493299e-05
1.1556316913571884934e-05
1.1556941957638221425e-05
1.1557698833270398968e-05
9.2895678947838652187e-06
9.2738846317223481042e-06
9.2622327792034382806e-06
9.2463830856817027539e-06
9.2348133627592820865e-06
9.2190631669868602634e-06
9.2077184666772636361e-06
9.1921420862218582956e-06
9.1810937285316217824e-06
9.1657486086556690482e-06
9.1548501464326343633e-06
9.13820985854968965e-06
9.1300501631799595631e-06
1.1072189136851835658e-05
1.1066393540626825884e-05
1.1059315420875054245e-05
1.1051567205963756346e-05
1.1043431952966834618e-05
1.1033857773544494338e-05
1.1021911666954383417e-05
1.1010718826291712841e-05
1.1000249343117243862e-05
1.0990814077889797106e-05
1.0982122851268574082e-05
1.0974294462230698458e-05
1.0968267118106568629e-05
1.0968576126612568624e-05
1.0986591407379623056e-05
1.1017015932302230165e-05
1.1046638186705261299e-05
1.1073620777641837983e-05
1.1096018112917012898e-05
1.1112431644400511609e-05
1.1121927611364398314e-05
1.1126011458806317478e-05
1.1126121600294376645e-05
1.1125910880303026184e-05
1.1128359062924496635e-05
8.9221684693573917533e-06
8.9109865602136711059e-06
8.895781509344596053e-06
8.8846976839972500008e-06
8.8695926645016029893e-06
8.8587331034436520374e-06
8.84370611815789042e-06
8.8330677173555758219e-06
8.818188353346929567e-06
8.8076618002802627616e-06
8.7914659286116303021e-06
8.7835954577608769863e-06
1.0610720170764006788e-05
1.0615296722996200957e-05
1.0616791758715557871e-05
1.0614890435101360128e-05
1.0610551664778173083e-05
1.0604835869350262605e-05
1.0598361953044514527e-05
1.0591726957507978379e-05
1.0585859364548265077e-05
1.0584928344968102314e-05
1.0600372406659401e-05
1.0621371482486897578e-05
1.063378185943963815e-05
1.0639417158282327863e-05
1.0641254513970080297e-05
1.0643033829336180811e-05
1.0647485974325851313e-05
1.0654844579008014696e-05
1.0664817495066271417e-05
1.0674599080176483008e-05
1.0683102809947122349e-05
1.0688886363091764197e-05
1.0693269740009314498e-05
1.0697919610732711747e-05
1.0199511044329529874e-05
1.0204693325164530357e-05
1.0205201079380210569e-05
1.020232806181269229e-05
1.0197410844972801174e-05
1.0191803688696874565e-05
1.0186492745150983676e-05
1.0183737784487986966e-05
1.0191570532083741286e-05
1.0217310661083430222e-05
1.0240174993684204459e-05
1.0256227650258249634e-05
1.0266483607677688423e-05
1.0272297417186421941e-05
1.0276266534184801542e-05
1.0280249422098651575e-05
1.0284969511425756704e-05
1.0290969226352399786e-05
1.0296718270501247438e-05
1.0302090627403680652e-05
1.0306431213221946933e-05
1.031082552311748852e-05
1.0316631992518310095e-05
9.8467205109688864332e-06
9.8401233383763915671e-06
9.8334414507169210228e-06
9.8266897271074816832e-06
9.8202016656345827045e-06
9.8148273662399991509e-06
9.8148408590584966429e-06
9.8241531701989392989e-06
9.8328839659016501384e-06
9.8403804121733439564e-06
9.8480372380862899644e-06
9.8571504971830808131e-06
9.8684696097313551611e-06
9.8817531868106556322e-06
9.8959050991123855549e-06
9.9094839190994971024e-06
9.920723215191372464e-06
9.9294862716176676839e-06
9.9353084469258331828e-06
9.9398088171086042443e-06
9.9449405114796963112e-06
9.4599237949431554833e-06
9.4582010316482304608e-06
9.4583953741512803948e-06
9.4576666831845943625e-06
9.4558148206206508264e-06
9.4538926785740547024e-06
9.4544183108816844189e-06
9.4601148511200008976e-06
9.4729537481834996459e-06
9.493595640955800768e-06
9.520358725413969174e-06
9.5502409969880856501e-06
9.5786916377576713166e-06
9.6020482213310171302e-06
9.6178630088843798185e-06
9.625280526182590515e-06
9.6263104649613064865e-06
9.0868573761682043836e-06
9.0817252855593466143e-06
9.0797121689474044023e-06
9.0859503497368908283e-06
9.1060293466836056463e-06
9.1314676129849489509e-06
9.1612897968559874631e-06
9.1932342157758801122e-06
9.2239449261451082025e-06
9.2508131391536745688e-06
9.2717322143581507949e-06
9.2861968836122683895e-06
9.2954373411851510357e-06
8.834803337207231932e-06
8.8294986591595693847e-06
8.8245142667516306086e-06
8.8210794347578038078e-06
8.8226433185479005494e-06
8.835883443707661877e-06
8.8526395578281440928e-06
8.8680878156412676903e-06
8.8811179315554989361e-06
8.8905885989755468915e-06
8.8971653106175809021e-06
8.9025824561931811072e-06
5.4620400753745589946e-06
5.2958544047697367094e-06
5.1164470984166921481e-06
4.98462151099010527e-06
4.8897455806729682272e-06
4.8203125019738208247e-06
4.7692299309354826175e-06
4.7338495193566356554e-06
4.7131615972746093143e-06
4.7044767981763271946e-06
4.7020784495784213433e-06
4.7095575133594283905e-06
4.7550231454482259051e-06
4.9273803265720221337e-06
5.2063402554784419453e-06
5.4066731580608394988e-06
5.5271815878914932945e-06
5.584779073884852211e-06
5.6025605682896815075e-06
5.6016199037724124821e-06
7.9245408119587591576e-06
7.8433925984747778344e-06
7.6053378885277481746e-06
7.3473305449295091702e-06
7.1505782230352451229e-06
7.0033077373961801184e-06
6.8949908720887182067e-06
6.8175459450361052685e-06
6.7674472052013259925e-06
6.7409370046871716717e-06
6.7316991496150819187e-06
6.7301248715341172282e-06
6.7461051297300085239e-06
6.8229391409130731741e-06
7.0687377372839988872e-06
7.3468809909898280763e-06
7.5340873935632920576e-06
7.6379118438326469814e-06
7.6798644530099937798e-06
7.6862693106283182964e-06
7.6804371174785143712e-06
7.6678493887267065097e-06
1.3265013157464956105e-05
1.323189809992440971e-05
1.3123491821170477753e-05
1.2855246458809594873e-05
1.2585912082996206942e-05
1.2378278015825593811e-05
1.2235207891243574606e-05
1.2150794202298949821e-05
1.2109756399436226625e-05
1.2094688795206074347e-05
1.208812765484347465e-05
1.2093369817842618429e-05
1.2131731100593847158e-05
1.226476500681623079e-05
1.2499666384168337606e-05
1.2697971007445106267e-05
1.2830441097658904718e-05
1.2893096926645219224e-05
1.2902668904307329815e-05
1.2892670937942734286e-05
1.2874782346463144991e-05
1.2840876251806312356e-05
1.2766388200006477093e-05
1.2643901397813518461e-05
1.2496273403001292022e-05
1.2330032155186703392e-05
2.8895899547255670883e-05
2.8717657197666312521e-05
2.8408097805419077535e-05
2.8184947524090628443e-05
2.8056380334273461652e-05
2.8001552755944763982e-05
2.7979891275515011474e-05
2.7973819406835106756e-05
2.799968255396186807e-05
2.8072065036843821771e-05
2.820251611559709373e-05
2.8403616319694839604e-05
2.867847106848080515e-05
2.8977520061663093596e-05
2.9250384097513153464e-05
2.9440444702778713771e-05
2.9524431559939843611e-05
2.9523756897407788717e-05
2.9495872937533450687e-05
2.9437209980004127777e-05
2.9293335193272608709e-05
2.9088164679904529445e-05
2.8913300503457796354e-05
2.8770583506195273677e-05
2.865046372273442825e-05
2.8551360820652881662e-05
2.8473433572615422179e-05
2.8417581902529707544e-05
6.0526281705943094319e-05
6.0224146949978279737e-05
5.9983474657810050576e-05
5.9818829669721781896e-05
5.9725893878341274881e-05
5.9675943381397882255e-05
5.9651988896512273138e-05
5.9697407761604112425e-05
5.9800748047303913099e-05
5.9897981508064825171e-05
6.0007049621602518504e-05
6.012241018402247455e-05
6.023698318017204576e-05
6.0322235720016323889e-05
6.0355122855940461989e-05
6.0334360004769988243e-05
6.0290404384277630572e-05
6.0217812414334478087e-05
6.0066015464357466432e-05
5.9830904226120392938e-05
5.9611700898395118169e-05
5.9414415033375977265e-05
5.9238092965487038196e-05
5.9083878298003793944e-05
5.8947560358006140929e-05
5.8834503437548992769e-05
5.8739449118858491682e-05
5.8672562699091677712e-05
5.8628723376042546486e-05
5.8600422819900437955e-05
9.0230635788464974849e-05
9.0002678923897214179e-05
8.9814744026828622942e-05
8.9654209404889959132e-05
8.9504808907001794896e-05
8.9353376520894998124e-05
8.9193969677022811628e-05
8.9027963792888637016e-05
8.886015836662151978e-05
8.8693436372577191601e-05
8.8526540350834185406e-05
8.8355081624028557587e-05
8.8171823020631172633e-05
8.79690576134031137e-05
8.7741932265669053291e-05
8.7491817547744109122e-05
8.7227580384531202976e-05
8.6963119609346150544e-05
8.6711358915411582355e-05
8.6481456238150829631e-05
8.6275999055528731487e-05
8.6090878816383675852e-05
8.5918718555303731643e-05
8.5753024189741739098e-05
8.5591529505252958898e-05
8.5435247682040646369e-05
8.5285107229667481512e-05
8.5140868321763844709e-05
8.4998457037612510029e-05
8.4853438472428174702e-05
8.4698036346150042423e-05
8.4529256712988489419e-05
0.00010679369284932425119
0.0001065200304890508219
0.00010625001404425449584
0.00010598020763382838268
0.00010570999168921807617
0.00010544056412080694547
0.00010517309931699868049
0.0001049080160651771486
0.00010464403090922524877
0.00010438066668052373425
0.00010411920202988770288
0.00010386238678622650372
0.00010361249279127532558
0.00010336914532772097325
0.00010312917755262410071
0.00010288931749036542935
0.0001026483013005381051
0.00010240882615195443666
0.00010217543520494520523
0.00010195113455309972781
0.00010173588108348693255
0.00010152702501459795611
0.00010132081157427768334
0.00010111509488787900424
0.00010091029923340734766
0.00010070837448596281396
0.00010050989341854118392
0.00010031321875094156859
0.00010011454910835155922
9.9911604761290063537e-05
9.9705140826958162689e-05
9.9499093516849446747e-05
9.9296406603287219262e-05
0.00014179170415343244661
0.00014092556083902189456
0.00014008599034075419837
0.00013928853859149624319
0.00013853246874699555891
0.00013779854980406505238
0.00011464045467272424819
0.00011439033545364456538
0.00011414113476950399134
0.00011389109552651937739
0.00011364066980596667538
0.00011339085184163094871
0.00011314238031975173385
0.00011289494881878613336
0.00011264782257775907538
0.00011240148461535158823
0.00011215983597048925172
0.0001119279281457261565
0.00011170881362217757434
0.00011150002136646118523
0.00011129418676659128277
0.0001110848769547053143
0.00011087092752172522398
0.00011065609431828388816
0.00011044568586034279368
0.00011024338579556317442
0.00011004897996759470293
0.00010985870286810650814
0.00010966811035150023004
0.00010947558364378799406
0.00010928325981552948693
0.00010909434067769416732
0.00010891007984314323158
0.00010872838964492867421
0.00010854545754374018496
0.00010835900919723922653
0.00010817062018057192578
0.00010798391196685980286
0.00010780360568686811679
0.0001076290342088266985
0.00013395165746839392848
0.00013293269440535824101
0.00013198622566066301387
0.00013111723010106828393
0.00013029725506533075714
0.00012948364203520257038
0.00012864361046014904607
0.00010770352400774991987
0.00010751863909945225681
0.00010731538020432158345
0.00010709973433317734035
0.00010687969781143706973
0.00010666182459324706489
0.00010644954769109054259
0.00010624543199123339038
0.000106054241836825303
0.00010588248986340723047
0.00010573442597289142849
0.00010560635044550241554
0.00010548537396992278868
0.00010535469171788800033
0.00010520238123702498122
0.00010502930884275894373
0.00010484787754508292674
0.00010467262606118351654
0.00010451164467460456883
0.00010436236380470602066
0.00010421477647269865373
0.00010405883385850981423
0.00010389095648475147866
0.00010371508787181180197
0.00010353731297250417663
0.0001033596433611261848
0.00010317820452952198814
0.00010298729210447940714
0.00010278598640223349334
0.00010257966985381641227
0.00010237652411450668809
0.00010218168665584683634
0.00010199351404714921841
0.00010180523174392798079
0.00010160897613803736468
8.7005760072019553329e-08
8.6975389248031977293e-08
8.6958718226817609876e-08
8.6991499746171173721e-08
8.7028752123846981803e-08
8.7106625156652592651e-08
8.7215463975829642989e-08
8.7274896073709203041e-08
8.7469345716032229295e-08
8.7551920353367947591e-08
8.7687206244419154715e-08
1.4284805420424773237e-06
1.3814098991266079575e-06
1.3343975144616960265e-06
1.2864025335035361607e-06
1.2354133985240008001e-06
1.1800274493474042866e-06
1.1202188861002725979e-06
1.0575636780521829498e-06
9.9461997862215588547e-07
9.3401084542597512421e-07
8.777018382052428343e-07
8.2683346708782093478e-07
7.8179002116262946362e-07
7.4258259322948510671e-07
7.0900292433969179192e-07
6.8070880630870102061e-07
6.5736165577379728708e-07
6.3843370393139570084e-07
6.2325837817360112597e-07
6.113038044365237328e-07
6.0208059962110507125e-07
5.9519327456211392311e-07
5.9021710025652420843e-07
5.8671910856610588984e-07
5.8421632656342195083e-07
5.8230535688539260081e-07
5.8081573117858165828e-07
5.795404411327256937e-07
5.784413986927643974e-07
5.7757381357011645363e-07
5.7696093632932948706e-07
5.7655895291376684098e-07
5.7631234204850457647e-07
5.7666309305678358006e-07
5.7774134495685144595e-07
5.7848739441312153678e-07
9.2423162896471042832e-08
9.2315532732720650335e-08
9.2159900225487046682e-08
9.201528407991122397e-08
9.1879639237078103271e-08
9.1765187052087025379e-08
9.1640594130021240997e-08
9.1509539069301441997e-08
9.1391250875901902546e-08
9.1306720420003525281e-08
9.1243434596638379097e-08
9.1195750850980436309e-08
9.1167474335443110004e-08
9.1172003830053749997e-08
9.120948940994541105e-08
9.1268211655966009601e-08
9.1329265764593644398e-08
9.1406881621927334969e-08
9.1557288042731504944e-08
9.1605704836846123507e-08
9.1690948229535453541e-08
1.5463252650621937974e-06
1.4852299105219402828e-06
1.4226324432776967827e-06