/*--------------------------------*- C++ -*----------------------------------*\
  =========                 |
  \\      /  F ield         | OpenFOAM: The Open Source CFD Toolbox
   \\    /   O peration     | Website:  https://openfoam.org
    \\  /    A nd           | Version:  12
     \\/     M anipulation  |
\*---------------------------------------------------------------------------*/
FoamFile
{
    format      ascii;
    class       volScalarField;
    location    "0.0075";
    object      p;
}
// * * * * * * * * * * * * * * * * * * * * * * * * * * * * * * * * * * * * * //

dimensions      [1 -1 -2 0 0 0 0];

internalField   nonuniform List<scalar> 
106891
(
99983.232225200626999
99994.080024607887026
100009.10888461809373
100026.69270285672974
100044.63798289823171
100060.63900958797603
100072.78306509552931
100079.8042647576367
100081.41440859746945
100077.92788204464887
100070.51244300311373
99781.238461897315574
99787.916691710212035
99795.037626343109878
99807.228324735537171
99823.470461747536319
99839.580502766533755
99850.076089137117378
99853.135444333587657
99851.78466315534024
99852.386762425710913
99858.797011833506986
99870.580591080346494
99882.262516809234512
99886.234088422774221
99878.658034014209989
99861.6547573904827
99842.012397537167999
99827.153489078191342
99821.097488386323676
99822.875666729494696
99828.28405113016197
99832.594780600004015
99833.636571767478017
99832.689787420720677
99832.718603408095078
99836.482083763272385
99845.285892917672754
99859.391252392786555
99878.728494784096256
99902.836962107554427
99930.475909352564486
99959.101643114176113
99984.839607018162496
100003.46587712004839
100012.20436381868785
100011.46186604321701
100004.46647759112238
99995.549165931035532
100021.14270955091342
100016.91448352416046
100011.55223261818173
100005.08872159763996
99997.768334564869292
99990.225710575527046
99983.514022635630681
99978.982439562358195
99978.033638411259744
99981.764139061575406
99990.659542098816019
100004.30564170605794
100021.30249806321808
100039.51571135268023
100056.53461994604731
100070.11780121811898
100078.61529647497809
100081.40706840375788
100078.49970987915003
100070.92361237297882
99811.041091642648098
99819.503906460726284
99825.244913286252995
99831.537366450138506
99840.176958151219878
99849.845953993470175
99858.231724683893844
99864.534265826150659
99869.974063782254234
99875.782607041575829
99881.72368389555777
99886.38564742761082
99887.147187898299308
99882.516551322813029
99873.742961720388848
99864.011536290199729
99856.781106355716474
99853.444484314604779
99852.891298522416037
99852.990114725893363
99852.348457105617854
99851.692932929552626
99853.434970891321427
99859.457725540152751
99869.702697102955426
99882.095047385941143
99894.162502903374843
99905.120443594569224
99916.704036610361072
99931.439404316872242
99950.213060919733834
99971.454352012209711
99991.755526316235773
100007.23438057734165
100015.6099382948596
100017.03355310269399
100018.60671581469069
100017.23539825303305
100014.66154932611971
100010.4301317112695
100004.4315269379731
99997.059082112202304
99989.383981093298644
99982.955373665638035
99979.464100708253682
99980.366637098995852
99986.462766646363889
99997.74806389825244
100013.16593883209862
100030.69603397576429
100047.88781690339965
100062.20511630226974
100071.60845154973504
100075.12088745611254
100072.43121171186795
100064.4328936751117
99827.803801580099389
99838.86476094002137
99840.368835132932873
99839.547291359180235
99842.990403109099134
99854.030213716061553
99869.923164644205826
99885.246066325169522
99894.671889759483747
99896.52230378119566
99892.668287246371619
99886.770427537820069
99882.046563543030061
99880.400138670680462
99881.617695230146637
99884.07892409953638
99886.062639459967613
99886.284928766457597
99884.223176695333677
99880.521590364238364
99877.291901290620444
99877.766778503413661
99884.376361722315778
99897.223641680713627
99913.601900891284458
99928.546414051597822
99937.165480260096956
99938.080711385220638
99934.595789882107056
99932.831421308073914
99937.779343551635975
99950.859582172692171
99969.772251372371102
99989.62744167818164
100005.46344444843999
100014.3664065998164
100015.09947216120781
100015.59704310212692
100014.11684448478627
100010.12670440571674
100003.70359740365529
99995.729262281674892
99987.783241636541788
99981.823613531683804
99979.68743960588472
99982.555410520872101
99990.702381800132571
100003.35331677152135
100018.75016305340978
100034.55766544284415
100048.24282848158327
100057.6103189898422
100061.34931413990853
100058.86318646318978
100050.8565823960962
99849.843454287547502
99852.366633730765898
99850.297133354149992
99853.49346186647017
99867.701574482212891
99890.420625181664946
99911.912316453745007
99922.289495322285802
99918.381109828260378
99903.906739710044349
99887.17047417104186
99876.737674614356365
99877.05400741151243
99886.627234673476778
99899.752620208993903
99910.062407071061898
99914.112507290483336
99912.231432079453953
99907.782861188825336
99905.55902568763122
99909.745295413798885
99921.957188393760589
99940.516619012822048
99961.04361930435698
99976.878207546091289
99981.893099411026924
99973.992468813856249
99956.656242521188688
99937.879735443828395
99926.345965151529526
99927.195271314441925
99940.26802698415122
99960.641486654290929
99981.221243807609426
100005.99835847341456
100010.05469925382931
100013.38356091808237
100014.74137195793446
100013.19184986985056
100008.48000538865745
100001.21807510445069
99992.796565020194976
99985.146696176583646
99980.194243230042048
99979.409976316892426
99983.42140683978505
99991.838467581837904
100003.32668326876592
100015.88032061008562
100027.19062094723631
100035.16988328412117
100038.44422140764073
100036.3057734642789
100029.25833727209829
99852.986979031964438
99862.641734058663133
99866.999837292823941
99874.791348876606207
99892.188670330637251
99916.799461431917734
99939.085871358751319
99947.871431484483765
99939.511754996070522
99918.273090559887351
99894.793125019030413
99879.849567998302518
99879.103349602664821
99890.916156546882121
99908.410920200723922
99923.430718025731039
99931.271955392789096
99932.860326397625613
99932.724089621420717
99935.932335456862347
99945.562039763055509
99961.783297264017165
99982.490700022666715
100003.20373412250774
100017.99457807374711
100020.92715043292264
100008.40721144541749
99981.842026603058912
99949.035238839729573
99921.00910544776707
99906.780972144988482
99909.652396280231187
99926.101909755438101
100005.16220921538479
100010.44674605623004
100014.08280162846495
100014.92867253907025
100012.43060811594478
100006.79320420511067
99999.000372340451577
99990.542359955317806
99983.164799903213861
99978.354962763638468
99976.980420092062559
99979.202075225533918
99984.340413487429032
99991.140673827525461
99998.002388809996773
100003.26161412544025
100005.62350153134321
100004.29482171525888
99999.495644593727775
99874.717794592404971
99890.519501508853864
99905.699395429939614
99924.062251477895188
99945.151521382664214
99962.167616438033292
99968.258865321884514
99959.64031996918493
99938.881074932724005
99915.040393656192464
99897.198960796871688
99890.580293121092836
99896.165219049580628
99908.631847384764114
99921.841540935143712
99933.007805503410054
99942.478939472493948
99952.392574757832335
99965.228739227648475
99980.714984722988447
99997.582182244834257
100015.08924337814096
100031.59815003177209
100043.72301159790368
100046.42632191453595
100034.27928496584354
100005.23202288524772
99964.525968327376177
99923.805150174695882
99895.233319880324416
99886.175015980610624
99895.47185462305788
100003.3537828016706
100009.63694974103419
100015.14973036093579
100018.51909416014678
100018.86965950070589
100015.8673196805903
100009.81001726660179
100001.55135762199643
99992.25510423083324
99983.206546155241085
99975.4892959024437
99969.817323424867936
99966.51271416414238
99965.420598812808748
99965.962883864965988
99967.367885585830663
99968.639950343698729
99968.772588306805119
99967.447922804189147
99918.44900115049677
99940.305239226014237
99957.185838523713755
99970.736774464399787
99980.523708107692073
99984.932809688907582
99981.596271242451621
99970.133787238315563
99951.751114211176173
99930.741977307552588
99912.401028255349956
99899.979888542700792
99896.427343544666655
99902.860962433056557
99918.365281999402214
99940.624760906866868
99966.534521267312812
99990.735659906233195
100010.16164453707461
100023.28242049050459
100032.20523418922676
100040.6513779329689
100048.89863407278608
100052.48676612877171
100044.02449490535946
100018.51597440696787
99978.25844446796691
99933.237330584393931
99896.889198042306816
99878.532132254811586
100011.28857489355141
100018.02095671718416
100023.88512451197312
100027.57836600030714
100028.06954172081896
100024.72591120342258
100017.47442929586396
100006.7939614324132
99993.695543210968026
99979.531628581040422
99965.720014500548132
99953.578266775904922
99944.147302916797344
99937.938976484030718
99935.033109801501269
99934.954438403161475
99936.719693300881772
99939.40583189028257
99968.624456928577274
99983.056362490620813
99989.758947450842243
99993.665733851172263
99997.530631389978225
100000.21642737933144
99997.687702718874789
99985.490872794893221
99962.666655017921585
99932.678573499957565
99903.858680915844161
99885.648855254112277
99885.033382546913344
99903.874046995406388
99937.737936399906175
99976.459201932229917
100009.34985685213178
100028.88393258860742
100034.55492345636594
100032.36296497609874
100030.054797326884
100031.76665894527105
100035.033769680158
100031.6586270454427
100014.89902466376952
99984.067560316791059
99946.148868170144851
99912.309036584090791
100015.70541533728829
100022.64841612742748
100030.21961017520516
100036.7597811252781
100040.43793548358371
100039.74192432253039
100033.67765624710592
100022.05607116161264
100005.61270194056851
99985.878754586650757
99965.021496428205865
99945.370638717868133
99928.972156262520002
99917.251658872119151
99910.891048761492129
99909.641739430604503
99912.582403156440705
99918.481741977186175
99994.938324771210318
99997.934417192111141
99998.63203381265339
100001.58681794400036
100006.34544107218971
100008.02310432792001
100000.11207745745196
99978.257149035358452
99945.248297835220001
99910.382749811105896
99885.496754477644572
99881.030316153628519
99901.120868224403239
99939.268394706072286
99981.728454213400255
100013.95453406272281
100027.72750896234356
100024.57329463632777
100013.14650580679881
100002.44617652842135
99998.104232187222806
99998.967533343384275
99999.508400860009715
99993.891397133746068
99979.922359890711959
99960.354254004501854
99940.670726075448329
100031.96725842148589
100040.34947271169221
100048.18717117607594
100053.22904611982813
100053.38679686961405
100047.14163577881118
100034.05195385422849
100014.78835889836773
99991.11183339174022
99965.624843598110601
99941.131596850085771
99920.270396251129569
99905.043699002460926
99896.434871696968912
99894.302580415154807
99897.776443381721037
99905.385172275171499
99984.147798544363468
99990.547350554872537
99991.072653896102565
99989.710241902081179
99989.691552064396092
99991.16510404649307
99991.600456289350404
99986.141168905771337
99971.440917307598284
99948.305451230320614
99922.407370931541664
99904.038971195113845
99902.179193982272409
99918.695369632463553
99947.631848966324469
99977.508764047175646
99997.325896541733528
100001.73307951317111
99993.530095700654783
99980.102056104253279
99969.119336829448002
99964.816662477081991
99966.264199128374457
99970.436053924669977
99974.554315059940564
99976.700934184671496
99976.140933798291371
100059.87653513861005
100067.22346655282308
100070.92465342646756
100068.90236590369022
100059.96083107223967
100044.02449415682349
100022.13679380110989
99996.398129196808441
99969.431780799452099
99943.987481988311629
99922.524635751993628
99906.737750369968126
99897.574326791829662
99895.022829876004835
99898.347804568475112
99906.206250246541458
99970.933548168890411
99971.408920470144949
99969.294844380114228
99966.004736853399663
99962.067840757736121
99958.567385254180408
99956.196281755255768
99954.251635511696804
99951.48021799941489
99946.135281688533723
99938.800041992551996
99933.375942687955103
99934.069558587478241
99941.733221518166829
99953.960078836025787
99965.332235068824957
99970.238079257964273
99966.29808455175953
99956.549314493022393
99946.391401289016358
99941.124539739568718
99942.956755020350101
99950.834356957057025
99962.055984195481869
99973.265575721146888
99982.233594096687739
99988.322459805844119
99990.470853863385855
100093.33229907466739
100093.98920855931647
100088.0904799351556
100075.22690703715489
100056.16138660526485
100032.67571122250229
100007.17905377493298
99982.15379601418681
99959.831831420873641
99941.834982271844638
99929.043652839638526
99921.808940261267708
99919.815654839840136
99922.478400598090957
99928.823786131368252
99948.234100627960288
99944.423840410803678
99939.394893239397788
99932.318481292575598
99925.48190202814294
99922.019430071115494
99924.635858612047741
99933.085569882343407
99943.32977769972058
99951.361198321828851
99955.156701542699011
99955.150488000595942
99953.484776223631343
99951.796381214066059
99949.386082609024015
99944.722550774691626
99937.720755225440371
99930.165168529609218
99925.011031632922823
99925.444126638540183
99932.73891283183184
99945.945311408417183
99962.101047327654669
99977.768830526823876
99990.437380389033933
99998.31085863194312
99999.937106387165841
100116.90468008548487
100107.58747218127246
100091.7543427067576
100070.90607077161258
100047.3829470990313
100023.67937777013867
100002.03884240015759
99984.083413270273013
99970.601863019895973
99961.6998354269017
99957.033191614304087
99955.911829293123446
99957.759017436721479
99961.887192030335427
99917.587116227470688
99911.815348961245036
99903.285570191525039
99895.139230418848456
99892.888088240084471
99901.49875026292284
99920.310300921366434
99942.956618230367894
99961.074775675937417
99968.38207771301677
99964.041076937908656
99952.233834688508068
99938.292436969379196
99926.434506332574529
99918.582207069965079
99914.488979129469953
99913.034795660656528
99914.350604541410576
99919.720386815301026
99930.429370867743273
99946.380095465327031
99965.253111067708232
99983.35723436025728
99997.107399777087267
100003.93103554716799
100002.6594455622544
100128.82157869490038
100111.32843105820939
100090.28517824072333
100068.31128646696743
100047.85016904212534
100030.74103258480318
100017.90397751949786
100009.35949049316696
100004.51792810537154
100002.4033398754691
100002.03205475278082
100002.78607672132785
100004.21001029766921
99886.644023621047381
99878.900165442217258
99872.265282034655684
99873.802161204643198
99888.711177871446125
99915.130906937396503
99944.646181151838391
99966.085066107014427
99971.321604241908062
99959.800140899809776
99938.010196790943155
99915.435702360613504
99899.942340876179514
99894.586505045299418
99897.415864853857784
99904.241773755420581
99912.287112223770237
99921.343445131366025
99933.186745225713821
99948.988923937999061
99967.621974861103809
99985.682794625114184
99998.8658413105004
100003.81642015338002
99999.730620287547936
100133.29232451377902
100113.84979715631926
100094.933392470135
100078.71284551458666
100066.51840895232453
100058.64234992311685
100054.53424521560373
100053.04414586417261
100052.86422996663896
100052.75477902081911
100052.17024778141058
100050.84658889468119
99860.72029713311349
99858.34202382795047
99865.68329203016765
99886.203702159094973
99916.704456493942416
99947.250466116616735
99965.622383632944548
99964.385994021649822
99944.881211327112396
99915.972568239507382
99889.654978062855662
99875.235400452074828
99875.360777599169523
99885.996467660457711
99900.376122623885749
99913.540449604115565
99924.643047874822514
99936.021785262099002
99950.126009195606457
99967.007145170195145
99983.647364900825778
99995.584200322555262
99999.081503500870895
99993.35568436991889
99852.218752731598215
99865.924397445633076
99890.950905918711214
99922.015140644987696
99948.694609908241546
99959.973090967629105
99950.840545600032783
99924.9514972610923
99892.781654183534556
99866.854645203144173
99856.084312637511175
99861.72098967351485
99878.128454003221123
99897.218876137339976
99912.978132163741975
99924.529573162391898
99934.915995521441801
99947.534772492086631
99962.962706241058186
99978.375328366833855
99989.103753897958086
99991.695851137395948
99985.725503747336916
99898.274414520114078
99926.768540858029155
99946.646064076165203
99949.896018179162638
99934.472439745411975
99905.648847692122217
99874.196582805350772
99851.710878437399515
99845.186264919335372
99854.301691079861484
99872.712091602297733
99892.204941859861719
99907.50354565953603
99918.448684376242454
99928.363846748819924
99940.749379115659394
99955.970312951438245
99970.911988086212659
99981.106603229811299
99983.745675487167318
99979.037099005669006
99918.920643298799405
99891.10621384276601
99863.621641825113329
99845.803512638638495
99842.317447244553478
99851.652596629355685
99867.794995710297371
99883.959506694896845
99896.531792468653293
99906.300731557246763
99916.663862229310325
99930.32857504869753
99946.801061307123746
99962.541036048860406
99973.36439883861749
99977.195504158138647
99974.894679206438013
99846.145901969124679
99852.803931733884383
99863.476569133403245
99873.619060215030913
99881.912710258067818
99890.317607415505336
99901.975890583795263
99918.244600945385173
99937.24270306249673
99954.740711980659398
99966.966425618753419
99972.743662342749303
99973.601021019509062
99856.402509266365087
99859.384686880090158
99862.298515293528908
99866.028958221184439
99873.54123211352271
99887.316239437655895
99906.915892323420849
99928.860034773897496
99948.382819107544492
99962.314082431679708
99970.47449969581794
99974.840265995037043
99852.836337654749514
99814.770337468115031
99776.462118925293908
99747.383825229757349
99734.570664455153747
99741.417252480474417
99766.178752708758111
99801.56289955828106
99837.414140560023952
99865.697796597640263
99883.471316951225162
99893.246399979063426
99900.518274935806403
99910.461053477483802
99925.774514509990695
99945.943502512192936
99967.767778067296604
99987.338896214583656
100003.22276718681678
100017.92859766728361
99872.852718694382929
99848.703470923341229
99813.446724198685843
99776.210296018994995
99745.431165569709265
99729.527726841290132
99734.506282120739343
99760.788341624487657
99800.225589418841992
99839.616377661935985
99868.644568889998482
99883.994970540486975
99890.021032326621935
99895.019106404783088
99905.535874068227713
99923.894225864307373
99947.421826666453853
99970.877547276846599
99990.416214886732632
100006.21654970376403
100022.17432888818439
100041.5672590307513
99866.840836401417619
99873.677018986025359
99865.873030078742886
99844.648874638325651
99812.520079186622752
99776.286691929417429
99743.935413327970309
99724.865861307029263
99728.204159146815073
99755.938804439851083
99799.39257772018027
99842.465465477609541
99872.07856846274808
99884.746548041250207
99886.998663940030383
99889.626604688019142
99900.793376882749726
99922.12659470095241
99948.711369614378782
99973.604482358714449
99992.968736610084306
100008.66650002972165
100025.96086982353881
100047.87459843317629
100071.56413974513998
100090.07541192324425
99846.160317515706993
99863.135246249003103
99867.2904104795889
99859.474296813161345
99840.842170100411749
99812.050711211719317
99776.604293816330028
99742.674422113937908
99720.620479886696558
99722.266204395942623
99751.554947825381532
99798.926365556268138
99845.554348419842427
99875.664719843029161
99885.656854436048889
99884.258915694008465
99884.583717371089733
99896.345988138840767
99920.459739920275752
99949.986069619917544
99976.087242108595092
99995.091006768721854
100010.63809686277818
100029.15443861582025
100053.51889073956409
100079.1198858225107
100097.35121769481339
100103.5254847574688
99818.982534459530143
99845.981610305505455
99859.733782388851978
99861.642730464125634
99853.966875897240243
99837.630800691971672
99811.919884317598189
99777.320468036370585
99741.57346049429907
99716.842380890826462
99716.768798368764692
99747.675861373121734
99798.777959780360106
99848.780831502168439
99879.470031911303522
99886.83716205683595
99881.672295887809014
99879.784244003501954
99892.161189551232383
99918.955095387049369
99951.11318014380231
99978.253864119076752
99996.75353499915218
100012.04169122070016
100031.70380656351335
100058.30302370178106
100085.58032867708243
100103.57987785919977
100107.59200640942436
100102.39467594052257
99782.355421316271531
99820.67408681580855
99846.61311806665617
99857.746167020799476
99857.345873480197042
99849.521272577971104
99835.163878125807969
99811.95795015899057
99778.280795842583757
99740.492747011419851
99712.979413558990927
99711.748607290894142
99744.143052873419947
99798.857649464524002
99851.978090395990876
99883.090393118240172
99888.175277277739951
99879.613693589650211
99875.654412509858957
99888.502339304264751
99917.661717173192301
99952.205077743070433
99980.121246562048327
99998.072603026419529
100012.86928292205266
100033.65235242417839
100062.13941016729223
100090.95251093793195
100108.73233475023881
100110.6884155113803
100103.15996412587992
100098.81090941913135
99782.617723298477358
99822.162845551647479
99847.293152545578778
99856.240635320966248
99853.981572365388274
99846.100986747667775
99833.382357916489127
99812.300236733572092
99779.275328018411528
99739.612291871555499
99709.752296365884831
99707.579743164620595
99741.192882417773944
99799.264546624981449
99854.955705847925856
99886.623491962978733
99889.556672001184779
99877.802959786640713
99872.168285727908369
99885.400272948128986
99916.562715110907448
99953.092158463376109
99981.651042664278066
99998.9981065865868
100013.32277898589382
100034.82891737436876
100065.09774196561193
100095.17955278517911
100112.84063311408681
100113.02403430135746
100103.35154741465522
100097.91084141418105
100107.75808443863934
100014.97496959497221
99900.627303799759829
99844.496867238311097
99869.10539366590092
99955.26581270393217
100043.00665098377794
99782.902222103526583
99823.600885722626117
99848.06354965477658
99855.32474203579477
99851.737523813673761
99843.819380855697091
99832.395049839382409
99812.645005829646834
99780.045826434172341
99739.016255229696981
99707.158275536537985
99704.278667956634308
99739.010589451732812
99799.514707985683344
99857.369672502041794
99889.216194377309876
99890.51706338924123
99876.552039254936972
99869.520071854538401
99883.127964654981042
99915.804097089887364
99953.813309361910797
99982.803340201367973
99999.634055047048605
100013.4803413117188
100035.45969561260426
100067.11649346657214
100098.23881709610578
100115.72709601251699
100114.56600445260119
100103.13496658953954
100096.96104087360436
100107.3434565950447
100134.25685395131586
100131.43728282469965
100013.31630158371991
99894.307071877992712
99836.762394166842569
99864.155616574193118
99953.953898285384639
100045.26364937292237
99783.155761349436943
99824.457041854417184
99848.4852787785494
99854.936110571143217
99850.714096737254295
99842.662399413864478
99831.998118308983976
99812.935295351460809
99780.405560584360501
99738.661580401108949
99705.450576144838124
99702.438417185738217
99737.975229581148596
99799.801146295663784
99859.163035764941014
99890.645367891644128
99891.045060719596222
99875.792267843091395
99868.010007073025918
99881.889810940469033
99915.413322754277033
99954.254219816328259
99983.392663617167273
99999.904372525197687
100013.46923625623458
100035.70363559952239
100068.14728304739401
100099.91860015300335
100117.22059382442967
100115.31691476449487
100102.88746473859646
100096.25298034385196
100107.03818215626234
100134.84051507637196
100167.36581745151489
99971.812292337141116
99954.122661559478729
99940.779909110322478
99932.849880585097708
99931.0857954195817
99935.798556808455032
99946.706271952294628
99962.90912507030589
99983.049287703586742
100005.15662671030441
100027.16639647058037
99725.223576293210499
99713.413922388004721
99712.354575363904587
99720.615167326614028
99736.277554888743907
99757.188079995059525
99778.983798290209961
99795.799583950050874
99803.212286054942524
99802.003618755115895
99799.030116086709313
99803.124884336735704
99819.007592323716381
99842.802077622618526
99863.858583634326351
99872.59535929915728
99867.673804360922077
99857.007107500976417
99851.795976559456903
99858.431554104943643
99874.361084356278297
99890.00846963377262
99895.513470277102897
99887.669603759379243
99871.997751423041336
99858.76086969973403
99856.725067153543932
99868.984754407239961
99891.350443597810226
99915.100130107370205
99932.664566411476699
99940.893593102664454
99941.412119308384717
99937.623381225188496
99931.668440730762086
99923.454353329434525
100046.95899417507462
100056.15808019229735
100063.89063186425483
100068.14187883956765
100067.26115066069178
100060.3778197291831
100047.57960828849173
100029.85647622628312
100008.89704217889812
99986.828688590612728
99965.904439735139022
99948.166491269148537
99935.201831668571685
99928.074428900858038
99927.363823360399692
99933.187052036446403
99945.078749739710474
99961.944282433090848
99982.223547990433872
100003.79983652768715
100024.66403344307037
99733.593499028094811
99718.118116642115638
99715.488013830821728
99724.138804089627229
99741.719175457896199
99765.282773521204945
99791.101099082035944
99812.652410756039899
99825.305131965622422
99828.477736312328489
99827.959086094648228
99832.516089595475933
99847.204108429126791
99869.2831209381402
99889.161829043790931
99897.664348114398308
99893.077164819726022
99882.158294625085546
99875.207408745205612
99878.501367505508824
99890.12466353783384
99902.089809106502798
99906.093641405765084
99899.254062419655384
99886.50134895843803
99877.113555084244581
99878.560954711516388
99892.783599479342229
99915.424898009194294
99938.384065729827853
99954.759391030966071
99962.137922233479912
99962.021780967726954
99956.747817925395793
99947.306384052397334
99933.096330971631687
100040.32074202242075
100046.77358730891137
100052.52880359021947
100055.8547863647691
100055.09503521271108
100049.07615740470646
100037.45666935491317
100020.88519325188827
100000.86395367063233
99979.466267293857527
99958.997480238802382
99941.677177758261678
99929.349676834390266
99923.203273737366544
99923.701121777674416
99930.659847638860811
99943.266506358864717
99960.203024146117968
99979.768095389095834
99999.790802524308674
100018.44997033548134
99733.064392184358439
99731.969660428134375
99742.335189054807415
99761.281750655733049
99785.919187117266119
99813.109982911439147
99837.276877250071266
99854.046700806939043
99861.401153464015806
99863.652542074749363
99868.473979399685049
99880.627250611170894
99898.632053868117509
99915.149297318697791
99922.262077487655915
99917.974263967422303
99907.446906837198185
99899.054829340064316
99898.646779680639156
99905.360943665175
99913.122363664966542
99916.063122028572252
99912.126879860108602
99905.061492474880652
99901.791385872493265
99907.410114739250275
99922.283862078314996
99942.094335847374168
99960.428384976781672
99972.358151248539798
99976.500736316302209
99974.092220918697421
99966.568020344522665
99953.856891188741429
100036.85019590746379
100040.00946268138068
100041.79111826713779
100040.68410105712246
100035.39224852970801
100025.22769392201735
100010.3988153537357
99992.095678685742314
99972.208119039598387
99952.998848427509074
99936.738584976119455
99925.322762605952448
99920.055988410545979
99921.416508444875944
99929.072628740701475
99941.935411773782107
99958.354210738776601
99976.42485172614397
99993.989883640751941
100009.44249374060018
99757.912297141680028
99761.491752223824733
99775.229024017011398
99795.970930811905419
99820.983595042474917
99847.081104891563882
99871.244015677744756
99888.469050006722682
99897.40998059597041
99900.794747283696779
99904.184159811979043
99912.601991504736361
99925.902164306098712
99939.006179276941111
99945.553049191366881
99942.834268406353658
99933.798807578670676
99924.618858844143688
99919.892065667343559
99920.570857674771105
99923.442166061198805
99925.110297487844946
99924.828167312763981
99924.678875940269791
99928.379769361723447
99937.916882057936164
99952.068678914758493
99967.280663935758639
99979.304838746087626
99985.455498002731474
99985.37036369217094
99979.951371289222152
99969.598883257596754
99953.737686409673188
100024.97989762859652
100025.33200024423422
100025.36586288418039
100023.77110636870202
100019.2596236839745
100010.90580516321643
99998.543841882928973
99982.917123273946345
99965.651766704570036
99948.809424467835925
99934.542507692298386
99924.75502401497215
99920.704126406024443
99922.871381677381578
99930.885319204127882
99943.466538308362942
99958.820980841046548
99974.92564869087073
99989.558536292723147
100001.28361587875406
99800.927466818626272
99819.372461616701912
99842.395076713874005
99867.21283282499644
99891.303192962121102
99911.927090398981818
99925.653627169333049
99932.039435826358385
99933.064256371493684
99933.400910358774127
99938.090927970595658
99948.103932655591052
99959.83265581195883
99968.06885213215719
99968.993548077254673
99962.591932759998599
99952.409757876986987
99942.391995216094074
99935.371850245908718
99932.350838948885212
99932.347679535567295
99935.212113828471047
99941.347079817889608
99951.091942233382724
99963.718786875033402
99976.801761276685284
99987.87465219385922
99994.817720661609201
99996.486430780350929
99992.750682567449985
99984.126214472169522
99970.409856141137425
100008.255592690708
100006.30781661803485
100004.00616357655963
100000.09012156484823
99993.571177798803546
99983.989422776940046
99971.741005582254729
99958.041874918606482
99944.737623166729463
99933.787270545391948
99926.829923853103537
99924.962598936428549
99928.465825121558737