/*--------------------------------*- C++ -*----------------------------------*\
  =========                 |
  \\      /  F ield         | OpenFOAM: The Open Source CFD Toolbox
   \\    /   O peration     | Website:  https://openfoam.org
    \\  /    A nd           | Version:  12
     \\/     M anipulation  |
\*---------------------------------------------------------------------------*/
FoamFile
{
    format      ascii;
    class       volScalarField;
    location    "0.0075";
    object      pMean;
}
// * * * * * * * * * * * * * * * * * * * * * * * * * * * * * * * * * * * * * //

dimensions      [1 -1 -2 0 0 0 0];

internalField   nonuniform List<scalar> 
106891
(
98879.839141457487131
98880.408277874972555
98881.005839939636644
98881.6322999123513
98882.288550094206585
98882.975809103940264
98883.695697412142181
98884.450165142014157
98885.240355892601656
98886.066268639755435
98886.921282715338748
98854.555478713140474
98854.564007202992798
98854.573098744585877
98854.58166219330451
98854.587784519564593
98854.590435109159444
98854.590574581598048
98854.590825066217803
98854.593720295961248
98854.600069339561742
98854.608857544415514
98854.618545210949378
98854.628195720681106
98854.638942565841717
98854.654032489066594
98854.676943518366897
98854.709639110602438
98854.751595509733306
98854.80044217138493
98854.85336864713463
98854.908577809052076
98854.965699512671563
98855.02542840289243
98855.088593160937307
98855.155191792000551
98855.224092531643691
98855.293412467915914
98855.361174051475246
98855.425560979711008
98855.484739753737813
98855.537083699324285
98855.581561478160438
98855.618038636370329
98855.64758765498118
98855.672535904464894
98855.695550498261582
98855.718538743283716
98855.74199842827511
98878.893371173733613
98879.292560531932395
98879.712710921798134
98880.154931859433418
98880.620398833110812
98881.110319068669924
98881.625822322355816
98882.167836501655984
98882.736933461623266
98883.333419003494782
98883.957419469807064
98884.60914755477279
98885.288874380188645
98885.997258316128864
98886.735264928895049
98887.50418902481033
98888.305768101214198
98889.140863095861278
98890.009618710173527
98890.905875532029313
98854.508132262140862
98854.511560562619707
98854.51581225519476
98854.521013983219746
98854.526305811974453
98854.53094271144073
98854.53515254346712
98854.539852555783
98854.54604031641793
98854.554323179821949
98854.565134527510963
98854.578720656645601
98854.595502214418957
98854.61666973172396
98854.643796502554324
98854.677720960287843
98854.718192659129272
98854.764210421795724
98854.814689943450503
98854.869080771197332
98854.927210472989827
98854.988911711348919
98855.053614806558471
98855.119868102308828
98855.185678979905788
98855.249424720925163
98855.310612350891461
98855.369463844937854
98855.425967111426871
98855.479298400343396
98855.527927111936151
98855.570325336244423
98855.605686333728954
98855.6343369922688
98855.657755039268523
98855.677860708849039
98881.919260127455345
98882.373141110350844
98882.847216533511528
98883.342580836964771
98883.860512653249316
98884.402352477409295
98884.969327443861403
98885.562438427907182
98886.182362050793017
98886.829438588116318
98887.50367705654935
98888.205039023479912
98888.933472951393924
98889.689285200918675
98890.473134107945953
98891.28601407300448
98892.129524416333879
98893.004397553871968
98893.911017276288476
98894.84357826464111
98854.469790226983605
98854.469159351370763
98854.469754760095384
98854.473827611509478
98854.48080024268711
98854.488599763295497
98854.495071624740376
98854.499772941155243
98854.504042583619594
98854.510479931414011
98854.521654965050402
98854.538955355252256
98854.562337724477402
98854.590906734447344
98854.623588316972018
98854.659622080551344
98854.698930180515163
98854.742101682102657
98854.789874952053651
98854.842768138943939
98854.900722938735271
98854.962689156280248
98855.026450583653059
98855.089245497147203
98855.148659866026719
98855.203659210528713
98855.255131638958119
98855.305501010530861
98855.356926917185774
98855.409715007946943
98855.462041955222958
98855.51082647711155
98855.553174117449089
98855.587512083991896
98855.613968071236741
98855.634136744367424
98885.478143183834618
98886.002529387624236
98886.547248968505301
98887.113616134884069
98887.703088632799336
98888.317072793171974
98888.95673136827827
98889.62282883048465
98890.315738164281356
98891.035447312518954
98891.78178673023649
98892.554464011118398
98893.353406708891271
98894.178880090563325
98895.03152416597004
98895.912722212771769
98896.82302346972574
98897.763030751739279
98898.727254797151545
98854.4317931766127
98854.431607134407386
98854.435582281759707
98854.443527677023667
98854.452399149813573
98854.458678873677854
98854.461001267045503
98854.461774959592731
98854.465670451900223
98854.47731452100561
98854.499047895209515
98854.529956162325107
98854.566879113961477
98854.606261376888142
98854.645891547290375
98854.685776050318964
98854.727632972397259
98854.773616236750968
98854.825133770689717
98854.881899757776409
98854.941745771342539
98855.001323125703493
98855.057407311876887
98855.10777900404355
98855.152084159984952
98855.192580953604192
98855.233295980389812
98855.277879129222129
98855.327859261320555
98855.381785114761442
98855.435832255068817
98855.485400874196785
98855.526974131498719
98855.559172983092139
98888.041080101727857
98888.594099339286913
98889.165397630771622
98889.755951640152489
98890.367050647051656
98891.000192509818589
98891.656873079307843
98892.338383236608934
98893.045657337774173
98893.779226268918137
98894.539162888802821
98895.325265432460583
98896.13714354368858
98896.974558421847178
98897.837543093875865
98898.726415759098018
98899.642188384299516
98900.585018772821059
98901.555483636053395
98902.548185772830038
98854.422833584743785
98854.423526934988331
98854.4267734081659
98854.433045532088727
98854.439882825201494
98854.443900269994629
98854.44375946506625
98854.441974935994949
98854.444058601380675
98854.455521826501354
98854.479209001743584
98854.513998337308294
98854.555857675455627
98854.59994957469462
98854.643103584181517
98854.685028732012142
98854.727795602288097
98854.773960307866218
98854.824723119250848
98854.878989501274191
98854.933881954333629
98854.986309791143867
98855.033844361736556
98855.074950200054445
98855.109771389747038
98855.140661139084841
98855.171795180154731
98855.207889739889652
98855.252121873971191
98855.304456156416563
98855.361368031182792
98855.417241475341143
98855.466500229158555
98891.707680652427371
98892.32285379662062
98892.956159903944354
98893.60879602584464
98894.282199609602685
98894.977882826089626
98895.697247998090461
98896.441371275810525
98897.210900874459185
98898.006004845025018
98898.826616248508799
98899.672497617415502
98900.543496247832081
98901.439608969871188
98902.360903249820694
98903.307965409607277
98904.280472530605039
98905.278785328075173
98906.29745564913901
98854.43441114477173
98854.43656175553042
98854.439235666373861
98854.441629176013521
98854.441950562279089
98854.439912084009848
98854.437798562415992
98854.439792180957738
98854.450608384053339
98854.473026706356904
98854.506265773437917
98854.54761587746907
98854.593163396260934
98854.639933033642592
98854.687187202143832
98854.735420107113896
98854.784832064207876
98854.834930727723986
98854.884494056197582
98854.931827762833564
98854.975604762483272
98855.014788932327065
98855.048498668300454
98855.076634689947241
98855.100685897283256
98855.12416714700521
98855.152122665618663
98855.189232606033329
98855.237252308390453
98855.293660768686095
98855.352629122658982
98855.407565017580055
98894.798387369490229
98895.454269730253145
98896.127374691423029
98896.818671795990667
98897.529384425433818
98898.260865955875488
98899.014437969861319
98899.791233224095777
98900.592157950391993
98901.417817362729693
98902.268543708240031
98903.144358844947419
98904.045209527117549
98904.970967666056822
98905.921459513148875
98906.896926661414909
98907.896563875401625
98908.920344972750172
98909.962567864815355
98854.476963043838623
98854.475550871153246
98854.473375650821254
98854.471346597725642
98854.469932435342344
98854.469852433539927
98854.472563632254605
98854.480540119489888
98854.496309639958781
98854.521916245852481
98854.557492302978062
98854.601860100636259
98854.652800790208858
98854.70764239456912
98854.763290688715642
98854.816794909464079
98854.865770255521056
98854.909077002012054
98854.946912636209163
98854.980444183500367
98855.011200518521946
98855.039567471525515
98855.064786573231686
98855.086706292582676
98855.107080626417883
98855.130224661261309
98855.161319659004221
98855.203571154241217
98855.256018652929924
98855.313812253167271
98898.54155523396912
98899.251338554531685
98899.978379164647777
98900.723514412762597
98901.487754293397302
98902.272254485244048
98903.078222743264632
98903.906832761422265
98904.759096355744987
98905.635849125072127
98906.53762287007703
98907.464648216962814
98908.416799321144936
98909.393562576442491
98910.394540551831597
98911.418214076285949
98912.464105284685502
98913.526424222160131
98854.531725497668958
98854.526779087187606
98854.523265135401743
98854.522276766845607
98854.523219852475449
98854.525478575043962
98854.529638003354194
98854.538194771666895
98854.554924437441514
98854.583301286183996
98854.625019037455786
98854.678679419725086
98854.739846738346387
98854.802285866244347
98854.859401503752451
98854.906830053048907
98854.943742240182473
98854.972777399147162
98854.998214284991263
98855.023598365791258
98855.049731076680473
98855.07532595928933
98855.098623444777331
98855.11994682441582
98855.142203421302838
98855.16969910991611
98855.20593414522591
98855.25132804668101
98901.560851357135107
98902.303297487000236
98903.062012167138164
98903.837553928839043
98904.630773255164968
98905.442764677485684
98906.27481280649954
98907.128330548890517
98908.004666353910579
98908.904993941978319
98909.830096048230189
98910.78035966065363
98911.755673648134689
98912.755331654843758
98913.778486982759205
98914.823084718620521
98915.888096646391205
98916.967394466642872
98854.621431164225214
98854.619242604167084
98854.620058804692235
98854.622920332491049
98854.626235944320797
98854.629527826065896
98854.63462996907765
98854.645889282808639
98854.668520418403205
98854.705506944359513
98854.755908165810979
98854.814553140648059
98854.873289164810558
98854.924303466672427
98854.963298887916608
98854.991064765301417
98855.012268063466763
98855.032862269814359
98855.056736328435363
98855.084707729562069
98855.11493342385802
98855.144855505495798
98855.173156810822547
98855.20055064628832
98855.229533976496896
98855.262628747164854
98855.300655623868806
98905.271624921238981
98906.058386169315781
98906.860751600688673
98907.679273205401842
98908.514977736849687
98909.369325136212865
98910.244014941898058
98911.140741908209748
98912.06097947897797
98913.005700475230697
98913.975292188784806
98914.969520781116444
98915.987536032509524
98917.028265853252378
98918.089509619749151
98919.170005795240286
98920.263754835657892
98854.743423070816789
98854.741308626907994
98854.741811206607963
98854.745220919576241
98854.75041313591646
98854.756067706664908
98854.761495412283693
98854.767803372931667
98854.778221836721059
98854.796612839971203
98854.825662502116757
98854.865169763143058
98854.911170804640278
98854.957157057331642
98854.99728856018919
98855.028721587077598
98855.052734767450602
98855.073585568796261
98855.096142300855718
98855.123428872946533
98855.155703384487424
98855.19076888456766
98855.225885090927477
98855.259386874749907
98855.290868858515751
98855.320805843657581
98855.350129215221386
98908.932208333004382
98909.758082933883998
98910.599082071217708
98911.456388906895882
98912.331564128005994
98913.226346161551191
98914.142401619799784
98915.081124258402269
98916.04341526934877
98917.029629246026161
98918.039457495484385
98919.071953894366743
98920.125866471062182
98921.199001092492836
98922.290017411956796
98923.39348848022928
98854.885181520439801
98854.886117799396743
98854.889465639746049
98854.89531911323138
98854.903450913392589
98854.913442441626103
98854.924553675431525
98854.936310201272136
98854.94906575368077
98854.964098499855027
98854.983153692097403
98855.00694478439982
98855.034209805147839
98855.062310294684721
98855.088708241426502
98855.112308857918833
98855.1341162132303
98855.156862985124462
98855.18331496763858
98855.214731589017902
98855.250298076978652
98855.287653481078451
98855.324312436845503
98855.358505467462237
98855.389660126369563
98855.418277043761918
98855.445300265797414
98855.471770559364813
98912.107065282762051
98912.964553955112933
98913.83836363494629
98914.730098333442584
98915.641356494757929
98916.573539193457691
98917.527658873237669
98918.504181000447716
98919.503045649675187
98920.523647398717003
98921.565025439223973
98922.6260762551683
98923.705051130702486
98924.800890740458271
98925.909137805181672
98855.017582474421943
98855.023799894828699
98855.031873642496066
98855.042120760757825
98855.054880043899175
98855.069561793861794
98855.084588001482189
98855.098045877544791
98855.109067244702601
98855.118417475285241
98855.127822073132847
98855.139039994668565
98855.153122579402407
98855.170087377162417
98855.189683427524869
98855.212102401128504
98855.238132906742976
98855.268336738401558
98855.302500132660498
98855.339420247182716
98855.376957754793693
98855.412781237406307
98855.445299583399901
98855.47407582931919
98855.499681582936319
98855.523304023314267
98855.546675277146278
98914.798914552942733
98915.685029455693439
98916.589376374249696
98917.513440825525322
98918.45825363813492
98919.424287836518488
98920.411491500155535
98921.419382718508132
98922.447148130901041
98923.493834439490456
98924.558446427123272
98925.639681527754874
98926.736827069922583
98927.846304504346335
98855.173576137298369
98855.182743437500903
98855.194521004334092
98855.209524524121662
98855.226635037557571
98855.242814643352176
98855.254394061325002
98855.259390646140673
98855.258526898600394
98855.255039253082941
98855.253306948754471
98855.257007326334133
98855.267920091704582
98855.285841176126269
98855.309395886652055
98855.337188741672435
98855.368304307441576
98855.40198298235191
98855.437140428519342
98855.472199902054854
98855.505322776662069
98855.534968537001987
98855.560613137698965
98855.582893275801325
98855.603545478486922
98855.624933536411845
98917.308828007240663
98918.224267068639165
98919.159385485821986
98920.114832369814394
98921.09062176963198
98922.086224503073026
98923.100779542772216
98924.133264728385257
98925.182761627293075
98926.248530319673591
98927.329782471351791
98928.426202202172135
98929.535098377557006
98855.334415480814641
98855.346507134701824
98855.361080235379632
98855.376729410214466
98855.389788336702622
98855.395949455545633
98855.392813654150814
98855.381747255392838
98855.367749140074011
98855.357299359398894
98855.355609054066008
98855.364806825324195
98855.383642624641652
98855.40884174691746
98855.437327570747584
98855.467213912212173
98855.497709188683075
98855.528540507351863
98855.559117081327713
98855.588150647454313
98855.614122408107505
98855.636403853219235
98855.655875463227858
98855.67468581724097
98855.695521546091186
98919.658234367219848
98920.60249080361973
98921.566317801116384
98922.549297839650535
98923.550573206899571
98924.569115539707127
98925.603894297513762
98926.654173065573559
98927.719440573462634
98928.799333467046381
98929.893909337057266
98931.001262256031623
98855.501598083108547
98855.514010003549629
98855.526030382752651
98855.533682576540741
98855.532876340788789
98855.521624109300319
98855.502202550836955
98855.480972949444549
98855.465524466402712
98855.46139590931125
98855.470229296377511
98855.489656498699333
98855.515017495912616
98855.542086752553587
98855.568684272526298
98855.594537327880971
98855.62019736484217
98855.645888538041618
98855.670940235679154
98855.694059851230122
98855.714358361467021
98855.732414749320014
98855.750352358722012
98855.770994660328142
98855.654348835538258
98855.660297204827657
98855.66018655942753
98855.650867904987535
98855.631834721687483
98855.606613728115917
98855.581983445532387
98855.565027468008338
98855.560556620301213
98855.569398907653522
98855.588406593320542
98855.612244506846764
98855.636443175928434
98855.659047307897708
98855.680427339699236
98855.701726130850147
98855.723562999934074
98855.74542468249274
98855.766020983006456
98855.784349635112449
98855.800886685028672
98855.817795342270983
98855.837904397922102
98855.780392542204936
98855.763129616520018
98855.73754861013731
98855.708015226337011
98855.681246382853715
98855.663726688741008
98855.65921566131874
98855.667357488782727
98855.684337671133108
98855.705010653706267
98855.725434102452709
98855.744222531677224
98855.762107366739656
98855.780410356499488
98855.799637601783616
98855.819223246813635
98855.837881897212355
98855.854636955555179
98855.87002078354999
98855.886037809934351
98855.905124163240544
98855.773004058239167
98855.755390041915234
98855.749617898036377
98855.754796199238626
98855.7673209815257
98855.782992060092511
98855.798846611724002
98855.814071250570123
98855.829541703380528
98855.846283794380724
98855.864347389840987
98855.882665524681215
98855.899816219476634
98855.914982999413041
98855.928838978579734
98855.943342937389389
98855.960679465293651
98855.845830466860207
98855.855832755521988
98855.867189797427272
98855.879738424977404
98855.894054735661484
98855.910296919551911
98855.927651958132628
98855.944605355107342
98855.959758357610554
98855.972727661515819
98855.984374725841917
98855.996613634124515
98856.011334563969285
98855.913061058352469
98855.919844176663901
98855.929975251128781
98855.94358293384721
98855.959930851357058
98855.977295614604373
98855.993472953792661
98856.006912126074894
98856.01748198500718
98856.026396529690828
98856.035562094039051
98856.046556983594201
98857.193510385550326
98857.152328903917805
98857.12867604571511
98857.120471164686023
98857.123145228353678
98857.130342039235984
98857.135195902534178
98857.132441235866281
98857.120191900467034
98857.100020992162172
98857.075589985266561
98857.0509468656237
98857.028664464101894
98857.008959346625488
98856.990662477372098
98856.972278774934239
98856.952429440440028
98856.930556584862643
98856.90729543605994
98856.883401163868257
98857.246606320652063
98857.190388017348596
98857.14924386869825
98857.125111276604002
98857.116824840413756
98857.120570661674719
98857.129767402031575
98857.136552304669749
98857.134420977716218
98857.121100400865544
98857.099053851488861
98857.073344320277101
98857.048877378329053
98857.028039838100085
98857.010301495945896
98856.993437891738722
98856.975346241597435
98856.955050504402607
98856.932873952813679
98856.909874238466728
98856.886669207538944
98856.862324518631794
98857.377721162789385
98857.308549598645186
98857.243505624763202
98857.187952782172943
98857.14644992693502
98857.121594083946547
98857.11299946604413
98857.117489895405015
98857.128514308220474
98857.137132065865444
98857.135549426850048
98857.121060295015923
98857.096848738088738
98857.069534636248136
98857.045070804160787
98857.025829823338427
98857.010160437494051
98856.994805057707708
98856.977238285602652
98856.956924667450949
98856.934991926202201
98856.912784397252835
98856.890469220568775
98856.866435240212013
98856.839043182975729
98856.809090805589221
98857.440399742161389
98857.372523887781426
98857.303569677445921
98857.239185066864593
98857.184091262126458
98857.142245186929358
98857.116468728578184
98857.107362990747788
98857.11266019481991
98857.125745990953874
98857.136451334226876
98857.135899019689532
98857.120859835486044
98857.095017188185011
98857.066336492018308
98857.041855513860355
98857.024003060389077
98857.010226711296127
98856.996011767419986
98856.978422966363723
98856.957355544902384
98856.934852932448848
98856.912838811855181
98856.891157850535819
98856.867401400988456
98856.839560172200436
98856.808956370223314
98856.77989211739623
98857.494843157925061
98857.433858679243713
98857.367309156717965
98857.300373053425574
98857.237600545980968
98857.182930193390348
98857.139954135913285
98857.112254952880903
98857.102053698909003
98857.107873443528661
98857.122964327063528
98857.135920906803221
98857.136278210746241
98857.120308719793684
98857.092429341413663
98857.062057909206487
98857.037382988346508
98857.020730552292662
98857.008767083796556
98856.996189369703643
98856.97955944640853
98856.958996029003174
98856.93693696106493
98856.915424063117825
98856.893874497487559
98856.869544074856094
98856.84067179133126
98856.809120279955096
98856.77971584397892
98856.75708972751454
98857.544436293581384
98857.493008115576231
98857.430856846927782
98857.363245510321576
98857.296071668490185
98857.233604443710647
98857.178904554224573
98857.135468169246451
98857.10723820446583
98857.097140798126929
98857.104280891493545
98857.121499906948884
98857.136423456511693
98857.13756274318439
98857.120863519259728
98857.0914737329731
98857.059837971784873
98857.035091787285637
98857.019659728844999
98857.009152451457339
98856.997249742868007
98856.980272685235832
98856.958741147391265
98856.935862536702189
98856.914264315171749
98856.89319020169205
98856.869260667648632
98856.840263883175794
98856.80836467842164
98856.779055166829494
98856.757295121467905
98856.744426450080937
98857.546189677916118
98857.494299221274559
98857.431675624582567
98857.364211007152335
98857.297929911073879
98857.236556607793318
98857.182442955658189
98857.138754538929788
98857.109595068031922
98857.098836857607239
98857.106399509299081
98857.124885327619268
98857.141104996437207
98857.142548481104313
98857.124928785706288
98857.093809049983975
98857.060847673536045
98857.035925558724557
98857.021277102307067
98857.011968466889812
98857.001085560041247
98856.984579070529435
98856.963188433815958
98856.940525415717275
98856.919398308338714
98856.89874586588121
98856.874689737160224
98856.844951165097882
98856.812132805294823
98856.782260783846141
98856.76068601445877
98856.748666687199147
98856.741874986008042
98861.938406571891392
98861.825450423813891
98861.754221536859404
98861.693558371247491
98861.611257255994133
98861.492581226732
98857.548223927311483
98857.495748496206943
98857.432259832363343
98857.364165813967702
98857.297811594078667
98857.236622199081467
98857.182485692726914
98857.138404373836238
98857.108677841635654
98857.097646346708643
98857.105826441358658
98857.125588379683904
98857.142946256688447
98857.144855191887473
98857.126682473171968
98857.094464287874871
98857.060549719913979
98857.035556193164666
98857.021640223334543
98857.0132239338418
98857.002844429807737
98856.986210965187638
98856.964303903732798
98856.941205890805577
98856.920077314221999
98856.899723795751925
98856.875754851178499
98856.845613370198407
98856.812248989401269
98856.782109446459799
98856.760822254771483
98856.749704158399254
98856.743884096227703
98856.735351456823992
98862.101042385940673
98861.932891018019291
98861.821699704421917
98861.753453239522059
98861.695249063559459
98861.614039884443628
98861.494810062416946
98857.554162360465853
98857.501488664463977
98857.43770594788657
98857.369503630165127
98857.303371631453047
98857.24247922100767
98857.188522059630486
98857.144393782946281
98857.114397836267017
98857.103173638795852
98857.111720099041122
98857.132157522268244
98857.150002161550219
98857.152016982945497
98857.133304101007525
98857.100259814440506
98857.065863285970408
98857.040878957879613
98857.02735905146983
98857.019427017716225
98857.009430384074221
98856.992877055890858
98856.970869740631315
98856.947727976541501
98856.926800004512188
98856.906712046999019
98856.88276204187423
98856.852318088713218
98856.818582295600208
98856.788174413522938
98856.766927624601522
98856.756268079989241
98856.750832457633805
98856.74243542162003
98856.725697765519726
98880.265093534471816
98880.840515448580845
98881.450201081432169
98882.094307973864488
98882.77292736399977
98883.485884859284852
98884.232951711543137
98885.013887957116822
98885.827601557451999
98886.672517921891995
98887.540098841549479
98855.18405547911243
98855.208860683284001
98855.236950797465397
98855.265243113200995
98855.291341031668708
98855.313609865144826
98855.331491310324054
98855.345960139020463
98855.359889036335517
98855.376792338036466
98855.3989003947936
98855.425260734627955
98855.452395331274602
98855.47680176848371
98855.497679528270965
98855.518228314962471
98855.54370221872523
98855.577749280200806
98855.620040197201888
98855.666763142566197
98855.713109075775719
98855.756512621010188
98855.798517623567022
98855.843448509011068
98855.895306963881012
98855.955152922484558
98856.020544162325677
98856.086631846788805
98856.148475487032556
98856.203364502565819
98856.251430596690625
98856.294591728335945
98856.334960973996203
98856.373755339955096
98856.411311307689175
98856.447881756626884
98879.039197258709464
98879.411879997656797
98879.801902970299125
98880.210791499092011
98880.640454558480997
98881.093071501192753
98881.570979392738082
98882.076472827713587
98882.611607651298982
98883.17799401486991
98883.776783791734488
98884.408634354083915
98885.073912990628742
98885.772541446101968
98886.504283278118237
98887.268701796521782
98888.065308483797708
98888.893803816128639
98889.752993046640768
98890.641567563900026
98891.551592357136542
98855.139538738250849
98855.165816347842338
98855.19674354417657
98855.228382808461902
98855.257813816424459
98855.28309524479846
98855.303229039142025
98855.318834406294627
98855.332719521422405
98855.348494057849166
98855.368767024265253
98855.393189487265772
98855.418851442838786
98855.442575790279079
98855.463512691669166
98855.484370071833837
98855.509979922368075
98855.543751036049798
98855.585562034219038
98855.632143024908146
98855.679401302069891
98855.725041167606832
98855.770165523033938
98855.818321565762744
98855.872576289111748
98855.933268855864299
98855.997785303479759
98856.06166702201881
98856.120499653698062
98856.171898229324142
98856.216166153462837
98856.255136605512234
98856.290799021910061
98856.324612755983253
98856.357581694246619
98856.39078772252833
98882.005191667019972
98882.434267521632137
98882.881112683826359
98883.346990597332479
98883.833534296340076
98884.342670696714777
98884.876486847817432
98885.43708310155489
98886.026411606260808
98886.646084410822368
98887.297263041444239
98887.98053154189256
98888.696024425284122
98889.443435952591244
98890.222325174268917
98891.03208438459842
98891.87203024115297
98892.741832725936547
98893.640243683272274
98894.56629100907594
98895.512701680854661
98855.14850342911086
98855.17949925357243
98855.211349043776863
98855.241189384760219
98855.267124706224422
98855.287907349091256
98855.303945839244989
98855.317171996066463
98855.330869850571617
98855.348028302425519
98855.36905497717089
98855.39197531103855
98855.414345093435259
98855.435368698905222
98855.457059966254747
98855.483221560163656
98855.516775598254753
98855.557941494596889
98855.604410045401892
98855.652843081421452
98855.701190372012206
98855.749885970115429
98855.801156426328816
98855.856907744760974
98855.916830056055915
98855.978382255809265
98856.037795577023644
98856.091729552223114
98856.13863022478472
98856.179017855232814
98856.214532245270675
98856.246893226765678
98856.277536829642486
98856.307785837867414
98885.484545785919181
98885.985400072822813
98886.505464730551466
98887.046078969011432
98887.608869933173992
98888.195646162610501
98888.808238582540071
98889.448360759663046
98890.117460433859378
98890.816627985710511
98891.546406804336584
98892.306861353863496
98893.097519989518332
98893.917727510299301
98894.766761734470492
98895.64388699036499
98896.548855820146855
98897.480463195199263
98898.438060736836633
98899.415005741262576
98855.14499950366735
98855.173296275155735
98855.202347980506602
98855.229279570223298
98855.252494126645615
98855.271075476528495
98855.285209167152061
98855.296550839862903
98855.308051923304447
98855.322311516676564
98855.34041020728182
98855.361504452783265
98855.383855863765348
98855.406488081003772
98855.430238020213437
98855.457520013311296
98855.490657721325988
98855.530283339627204
98855.575395528576337
98855.624070084042614
98855.6746141576441
98855.726748046436114
98855.781131754760281
98855.837972381123109
98855.896027070702985
98855.952939286522451
98856.006141704638139
98856.053633661009371
98856.09481764640077
98856.130653458734741
98856.162820474302862
98856.192835232417565
98856.222033546917373
98856.25184304099821
98888.5490915094706
98889.101123783475487
98889.672518002713332
98890.264235661379644
98890.877534208062571
98891.51388793993101
98892.174873943557031
98892.862030900694663
98893.576645061300951
98894.319614251027815
98895.091332486728788
98895.891792078080471
98896.720540011068806
98897.576902269836864
98898.460045884741703
98899.369100235300721
98900.303823052585358
98901.26309977073106
98902.246697835798841
98903.248628454675782
98855.195815073238919
98855.219272940375959
98855.240494637560914
98855.258180950710084
98855.271857506086235
98855.282027558496338
98855.290355718389037
98855.29958652453206
98855.312075216977973
98855.329178113839589
98855.35026696533896
98855.373422805496375
98855.397216994882911
98855.421758116528508
98855.448558425414376
98855.479755498134182
98855.516869331710041
98855.560195032914635
98855.608892591844779
98855.66137163231906
98855.716308945193305
98855.772784572895034
98855.829612006462412
98855.885046825002064
98855.937093516258756
98855.984159870495205
98856.025470109365415
98856.061258919042302
98856.092607277736533
98856.121004362037638
98856.147990307086729
98856.175097931089113
98892.216352904230007
98892.835833146760706
98893.475539114762796
98894.136305013103993
98894.819187410757877
98895.52535494993208
98896.255956069071544
98897.011954341869568
98897.794082803084166
98898.602700190138421
98899.437794483164907
98900.298925784780295
98901.185474963422166
98902.096753640449606