/*--------------------------------*- C++ -*----------------------------------*\
  =========                 |
  \\      /  F ield         | OpenFOAM: The Open Source CFD Toolbox
   \\    /   O peration     | Website:  https://openfoam.org
    \\  /    A nd           | Version:  12
     \\/     M anipulation  |
\*---------------------------------------------------------------------------*/
FoamFile
{
    format      ascii;
    class       volScalarField;
    location    "0.0075";
    object      pPrime2Mean;
}
// * * * * * * * * * * * * * * * * * * * * * * * * * * * * * * * * * * * * * //

dimensions      [2 -2 -4 0 0 0 0];

internalField   nonuniform List<scalar> 
106891
(
262370.95209503173828
262073.51477241516113
261768.69207954406738
261454.73065567016602
261136.42680168151855
260818.56571578979492
260511.60721969604492
260218.81091690063477
259947.77712631225586
259700.66742134094238
259469.53654861450195
505368.45631408691406
504217.63501167297363
503077.34306335449219
501940.71237564086914
500798.43879318237305
499643.12229347229004
498472.51510620117188
497289.62124252319336
496100.72186660766602
494912.57696151733398
493728.80378913879395
492548.14504623413086
491367.88005065917969
490190.11521148681641
489021.30679512023926
487866.91267967224121
486729.47610664367676
485609.36581993103027
484505.87411308288574
483418.52206039428711
482348.38219451904297
481296.68786430358887
480264.42764663696289
479254.39190483093262
478271.63000869750977
477320.54241943359375
476401.45009422302246
475510.11811637878418
474639.24420356750488
473779.21503448486328
472917.40969657897949
472040.95049285888672
471143.88570594787598
470230.71540641784668
469311.30715370178223
468391.81966972351074
467470.88976097106934
466542.78721618652344
264984.35033798217773
264604.99484252929688
264235.20687484741211
263874.56951141357422
263524.87655448913574
263189.63177871704102
262872.07969093322754
262572.80485534667969
262287.85358047485352
262009.42233085632324
261727.92042350769043
261436.59269905090332
261132.3442554473877
260819.26275634765625
260502.48301124572754
260193.08519744873047
259895.99271774291992
259619.76683616638184
259367.80669021606445
259132.55837249755859
504077.70913887023926
502926.21476936340332
501783.49773597717285
500641.78553199768066
499493.68289566040039
498335.2027759552002
497166.1794548034668
495990.61300277709961
494816.31410217285156
493649.81540298461914
492491.76347541809082
491339.62139320373535
490193.90328788757324
489058.2240161895752
487934.07402801513672
486820.09723281860352
485715.54347801208496
484622.27288627624512
483544.31787490844727
482485.80800819396973
481448.39737892150879
480431.85209465026855
479436.99154090881348
478466.29960441589355
477521.58028030395508
476601.8120231628418
475703.62768936157227
474822.72249794006348
473953.16170310974121
473084.39084625244141
472201.76873397827148
471293.77230644226074
470359.24919891357422
469406.59664344787598
468445.47758483886719
467479.51435089111328
264611.82108116149902
264237.19799041748047
263869.43550491333008
263507.62251281738281
263154.36653518676758
262814.80806922912598
262493.99552917480469
262193.92319107055664
261911.52016830444336
261639.27378273010254
261367.34663391113281
261087.99033737182617
260796.62513732910156
260495.37804794311523
260187.88637733459473
259884.00171661376953
259588.87699890136719
259311.2966423034668
259055.8594799041748
258815.76800346374512
504151.27465438842773
502971.36431503295898
501800.48340034484863
500633.46170997619629
499465.68170356750488
498294.66855430603027
497118.60685920715332
495939.6524829864502
494765.75020217895508
493605.7482738494873
492462.25974655151367
491333.32609748840332
490218.57096290588379
489118.5036449432373
488029.50985717773438
486944.99481201171875
485862.3873176574707
484786.64021492004395
483726.39111137390137
482688.17036819458008
481673.54758453369141
480680.26116752624512
479705.37287902832031
478746.62116050720215
477802.09150886535645
476870.39270782470703
475950.94153594970703
475044.26475524902344
474149.66637992858887
473260.83081817626953
472363.54278564453125
471441.40474510192871
470486.369873046875
469503.3671875
468503.77614402770996
467495.34144973754883
263900.10261917114258
263535.51860427856445
263177.36787223815918
262826.3514347076416
262486.07384300231934
262160.9923267364502
261853.85929107666016
261563.5945873260498
261285.21629524230957
261011.2060546875
260735.07573127746582
260452.27999877929688
260163.43190383911133
259870.06844139099121
259579.51821517944336
259295.62038993835449
259026.16378211975098
258776.25571250915527
258539.48709297180176
503267.38433647155762
502051.77486419677734
500837.32980537414551
499625.63684272766113
498418.46443176269531
497214.62878608703613
496014.23393249511719
494825.34243774414062
493658.47731590270996
492518.62793159484863
491405.51021766662598
490317.68672370910645
489252.13688087463379
488200.76591300964355
487152.81886100769043
486103.43512153625488
485058.2678108215332
484028.03657341003418
483020.16754722595215
482035.16302490234375
481068.12612724304199
480111.66843414306641
479158.99448013305664
478206.79092979431152
477255.85213661193848
476309.41818618774414
475370.88798141479492
474442.5482063293457
473522.27440071105957
472598.83045196533203
471654.8400936126709
470677.85013580322266
469668.57009124755859
468637.44347953796387
264052.33349609375
263666.60042190551758
263295.72561073303223
262936.31915283203125
262586.81805610656738
262247.76037788391113
261921.01852989196777
261608.37224960327148
261309.67196846008301
261022.30454635620117
260741.62853240966797
260463.48977279663086
260184.60027503967285
259905.1726131439209
259625.2914981842041
259349.8238468170166
259080.80237007141113
258824.29262161254883
258585.45479583740234
258358.07454490661621
503884.67757606506348
502616.47087860107422
501342.79486656188965
500071.29583358764648
498809.96004295349121
497561.59405517578125
496327.36263847351074
495113.52081108093262
493930.69511413574219
492786.60540771484375
491682.75225830078125
490615.51733207702637
489577.84783744812012
488558.9164924621582
487547.14036750793457
486537.04464721679688
485533.31586456298828
484545.12355804443359
483576.64467620849609
482624.15805625915527
481678.92833518981934
480730.82720184326172
479772.78342819213867
478804.83048248291016
477833.03695487976074
476863.26895523071289
475897.92685127258301
474937.94159889221191
473982.86133003234863
473026.19818305969238
472053.83970260620117
471052.88147735595703
470021.17063331604004
263643.23211860656738
263255.94682502746582
262884.55709266662598
262527.2096061706543
262182.72033309936523
261850.99777221679688
261532.66880226135254
261227.82819175720215
260935.20296096801758
260651.99613952636719
260375.66571617126465
260103.92737579345703
259836.76728248596191
259573.10136604309082
259315.40202713012695
259063.6115665435791
258821.67945289611816
258594.42403221130371
258375.55688858032227
503459.1122989654541
502128.77392768859863
500796.65170860290527
499476.44855880737305
498177.45881271362305
496903.88164710998535
495659.80435752868652
494452.49690818786621
493290.69296264648438
492178.79134750366211
491113.36827278137207
490086.39571762084961
489086.23549652099609
488102.38290596008301
487130.77401542663574
486173.7769775390625
485233.74722671508789
484306.79720115661621
483382.38616371154785
482449.03774261474609
481499.94801330566406
480534.50147438049316
479558.37838172912598
478580.01915168762207
477603.53012275695801
476626.29184913635254
475644.86887550354004
474659.27689933776855
473668.6755542755127
472666.10281372070312
471642.18137168884277
470593.68009185791016
263903.32834243774414
263500.24799728393555
263113.94632148742676
262742.98005485534668
262386.03837966918945
262042.83382225036621
261714.26603317260742
261401.20287132263184
261103.40434265136719
260819.15805435180664
260546.80746650695801
260284.79688262939453
260032.92376327514648
259789.08223342895508
259553.39299964904785
259323.40799903869629
259100.20586585998535
258887.42066955566406
258677.79407501220703
503090.18895530700684
501700.88344192504883
500323.75423812866211
498975.03391075134277
497662.11075782775879
496385.5417594909668
495145.89666938781738
493948.50535202026367
492800.67474555969238
491706.6104736328125
490662.55122184753418
489661.04393196105957
488694.53154754638672
487757.05792045593262
486843.0379638671875
485943.96772003173828
485045.54074287414551
484132.60268974304199
483198.03708267211914
482245.23017692565918
481283.17132377624512
480319.63160133361816
479357.74892997741699
478394.43276023864746
477421.62387084960938
476433.31358528137207
475430.40178489685059
474417.2344799041748
473394.31316947937012
472357.6732063293457
264057.72698211669922
263657.54194450378418
263272.5461483001709
262901.71515846252441
262544.79473876953125
262202.60409164428711
261876.37906646728516
261567.1353931427002
261275.17008590698242
261000.74572372436523
260743.39933395385742
260502.82919120788574
260275.95536422729492
260060.77112579345703
259852.77069854736328
259650.25096893310547
259455.12659645080566
259258.23209190368652
502732.08994293212891
501298.90787696838379
499900.82274627685547
498548.43518447875977
497238.92593955993652
495964.44327163696289
494723.97643280029297
493527.22552871704102
492386.11321067810059
491306.79767990112305
490289.11408805847168
489327.12424659729004
488409.48897933959961
487520.70898628234863
486641.79904365539551
485752.18461036682129
484836.58278656005859
483894.99560165405273
482941.72656440734863
481992.76937484741211
481053.74991798400879
480119.96143531799316
479180.50684928894043
478224.22780609130859
477244.22959899902344
476240.96084022521973
475220.6854419708252
474188.98361778259277
264987.73952484130859
264572.02407455444336
264171.12154006958008
263784.29035949707031
263410.91037559509277
263051.13744163513184
262706.08510589599609
262377.86009788513184
262068.89120483398438
261781.75333023071289
261517.62947654724121
261276.49424934387207
261054.77267074584961
260849.06080436706543
260653.52971267700195
260464.35226821899414
260282.28415107727051
260096.78823661804199
502522.46392440795898
501079.77764129638672
499688.48953056335449
498344.72698974609375
497037.2877025604248
495762.44695472717285
494528.61599922180176
493350.06731033325195
492238.88098907470703
491199.93410491943359
490228.33510398864746
489309.05852699279785
488421.38942527770996
487543.63968658447266
486655.23724174499512
485743.08624839782715
484809.56427001953125
483871.09514045715332
482942.91768455505371
482028.58058547973633
481120.39200973510742
480206.16797065734863
479274.68990898132324
478318.62066841125488
477335.87077140808105
476328.12101936340332
475298.04885673522949
265911.40091705322266
265493.68698501586914
265087.90226936340332
264694.13371658325195
264312.77079200744629
263945.25600242614746
263594.47647094726562
263264.09011650085449
262957.85154914855957
262677.52616882324219
262423.14683723449707
262191.28326034545898
261978.50166320800781
261779.35480690002441
261589.39400672912598
261408.58084106445312
261224.67656517028809
505469.50544357299805
503960.13793563842773
502492.27640914916992
501074.54082107543945
499706.96036529541016
498384.15807723999023
497103.77125549316406
495870.64403533935547
494692.83392906188965
493576.23672294616699
492522.38382530212402
491526.53381729125977
490577.71077156066895
489662.59570121765137
488768.66210174560547
487882.65592765808105
486993.12168312072754
486096.15958404541016
485196.88580894470215
484302.42227935791016
483414.72065734863281
482528.87889862060547
481636.74691963195801
480729.76943206787109
479800.05024147033691
478840.90488433837891
477846.91576957702637
267189.88085556030273
266773.41210556030273
266365.25140190124512
265967.0162410736084
265581.58905410766602
265212.89108085632324
264864.84359931945801
264540.42220115661621
264240.18636131286621
263963.35182952880859
263706.94674301147461
263469.05708122253418
263246.66768074035645
263036.5967960357666
262839.06142234802246
262640.87453079223633
506629.26457786560059
505131.2426872253418
503675.86608123779297
502265.19208335876465
500901.4898681640625
499586.83542823791504
498323.05801010131836
497112.25917434692383
495953.61099433898926
494841.4497184753418
493769.35497283935547
492733.73328971862793
491734.30862998962402
490772.11364555358887
489845.78028297424316
488948.38596534729004
488069.07467460632324
487198.41934776306152
486331.40444374084473
485466.37586784362793
484602.08698844909668
483734.62361907958984
482857.02608680725098
481960.48991584777832
481036.54369735717773
480078.25691604614258
479080.64984321594238
478043.33090019226074
268242.8046760559082
267827.67282676696777
267422.91429901123047
267031.83332443237305
266657.69747543334961
266302.78595924377441
265967.96409797668457
265652.18576431274414
265354.19818115234375
265071.97797203063965
264805.21292877197266
264552.71756172180176
264312.47178077697754
264085.18622398376465
263858.81954002380371
506358.96264457702637
504922.39095306396484
503526.89465141296387
502174.76777648925781
500872.16515159606934
499623.31360626220703
498427.02461814880371
497274.81346321105957
496153.16539192199707
495050.95744895935059
493967.04752540588379
492911.25996971130371
491896.55360984802246
490929.44426345825195
490006.89495849609375
489118.2573127746582
488250.41841125488281
487392.59721374511719
486538.02398872375488
485682.02959251403809
484819.36584854125977
483942.54889869689941
483042.46088409423828
482110.0568733215332
481138.48499298095703
480125.4711856842041
479075.64456748962402
269365.07658004760742
268955.49648475646973
268561.5726318359375
268185.34320640563965
267827.20601272583008
267486.18292236328125
267160.11312866210938
266847.42934417724609
266546.50390625
266257.70258903503418
265980.83819007873535
265714.79251480102539
265460.87196159362793
265208.34542274475098
506394.46487617492676
505009.88146781921387
503664.61478996276855
502367.25385665893555
501122.77437210083008
499925.58962821960449
498761.14937973022461
497612.50213050842285
496468.13767623901367
495330.79193687438965
494217.86453247070312
493149.85372924804688
492138.06405258178711
491180.85122489929199
490266.62868309020996
489380.24582862854004
488508.73570251464844
487643.19106864929199
486776.90968322753906
485902.86999320983887
485012.50775337219238
484096.64325141906738
483147.21270370483398
482158.48519325256348
481130.07347297668457
480068.82250213623047
270547.98238563537598
270148.39765739440918
269766.89884757995605
269402.32234764099121
269052.44749450683594
268714.55520057678223
268386.85212516784668
268067.63316535949707
267757.32636642456055
267456.26143264770508
267164.52377891540527
266884.63739776611328
266607.92177391052246
506693.50447654724121
505347.26230049133301
504045.62316513061523
502793.26828193664551
501580.97200584411621
500390.49958229064941
499204.16287040710449
498013.44662284851074
496825.8412971496582
495663.12658500671387
494548.94843673706055
493495.93657302856445
492501.81349563598633
491553.76795768737793
490636.03405570983887
489735.46881675720215
488842.69954109191895
487950.61580085754395
487051.98861122131348
486138.45601654052734
485201.92877197265625
484235.81434059143066
483235.1761302947998
482198.71361351013184
481131.55746078491211
271789.57327079772949
271399.95415687561035
271025.8283634185791
270664.45794486999512
270313.08435249328613
269969.67353630065918
269631.98077964782715
269299.94854927062988
268974.14012145996094
268656.15852737426758
268350.21358108520508
268049.94282150268555
507181.48296165466309
505867.74865531921387
504598.35704231262207
503361.94540786743164
502138.67897033691406
500911.92109489440918
499677.88892555236816
498449.04752540588379
497248.78891754150391
496099.15090560913086
495010.63081741333008
493979.51236343383789
492993.17130851745605
492037.55950164794922
491101.10984039306641
490174.91193008422852
489251.64168930053711
488324.41417503356934
487386.05812835693359
486430.35185050964355
485452.22732162475586
484446.31401062011719
483408.09654235839844
482338.73592567443848
507825.67912101745605
506530.24113464355469
505261.59280395507812
504000.65903282165527
502733.53879165649414
501461.3651180267334
500200.0494441986084
498971.4283332824707
497793.06788635253906
496671.60523223876953
495602.48913955688477
494574.81947708129883
493577.56482696533203
492601.59726524353027
491638.80998229980469
490681.73174095153809
489724.20844841003418
488761.20272827148438
487787.96728134155273
486799.09931945800781
485787.0777702331543
484744.74760055541992
483671.38631629943848
507291.64230918884277
505990.09877395629883
504682.43604469299316
503372.43996238708496
502076.60491943359375
500815.03982162475586
499601.80773544311523
498440.83940124511719
497327.60147476196289
496253.59210586547852
495210.85295295715332
494193.04304313659668
493193.25863265991211
492203.78655052185059
491218.59869194030762
490233.55221939086914
489243.65076637268066
488240.95627975463867
487215.16687965393066
486158.6057243347168
485072.06685256958008
504032.56248474121094
502728.75030326843262
501470.39503860473633
500261.54299545288086
499098.28063583374023
497973.4401798248291
496881.33769798278809
495818.50569915771484
494780.02056503295898
493758.39986038208008
492746.72562980651855
491739.31940269470215
490728.65517807006836
489703.6282787322998
488652.63076591491699
487570.19682312011719
486460.95889854431152
500864.06093788146973
499686.74818420410156
498544.1396541595459
497435.03361892700195
496356.70541763305664
495302.36164474487305
494263.30551528930664
493230.52875518798828
492193.14345741271973
491137.94368553161621
490054.08201599121094
488939.53272438049316
487802.45962905883789
501377.7603816986084
500185.74871635437012
499031.2408390045166
497913.75398826599121
496826.98158645629883
495759.37856674194336
494697.87803077697754
493628.9811897277832
492539.52832221984863
491421.0030517578125
490274.5784854888916
489110.1992130279541
641099.40469551086426
640059.80179786682129
639072.71718788146973
638106.70858383178711
637138.3488655090332
636149.97420120239258
635126.15446662902832
634053.86748695373535
632923.30132102966309
631728.14302635192871
630467.15796661376953
629145.56795883178711
627775.54728317260742
626372.43532371520996
624949.65743446350098
623517.71697235107422
622085.64505386352539
620661.81161499023438
619250.79784202575684
617850.9776782989502
643808.1290454864502
642701.97331619262695
641678.11189270019531
640702.83423233032227
639745.31937980651855
638783.75554656982422
637800.64276123046875
636779.06848907470703
635702.36252403259277
634557.7863597869873
633339.16557502746582
632047.72655487060547
630692.52174186706543
629289.76770401000977
627857.56524276733398
626409.93632698059082
624955.89735984802246
623503.17428970336914
622060.46713066101074
620633.5984992980957
619221.52039337158203
617819.27954483032227
647750.82743263244629
646455.88103103637695
645262.14656257629395
644170.49223518371582
643158.80112648010254
642192.53847503662109
641240.92866897583008
640283.47720336914062
639303.05373001098633
638281.0658130645752
637197.72123718261719
636037.20200347900391
634793.26780128479004
633470.27207374572754
632081.3428955078125
630646.69510269165039
629187.15947723388672
627716.95083618164062
626243.36542701721191
624772.67526435852051
623314.01421928405762
621874.34226226806641
620452.80380249023438
619044.2218189239502
617647.91680717468262
616272.34764671325684
650400.67365074157715
649030.50481033325195
647745.7643871307373
646562.2706127166748
645479.8945255279541
644474.87273788452148
643512.15228271484375
642562.49393463134766
641606.17989349365234
640626.3089485168457
639602.59274291992188
638512.37700653076172
637337.31416702270508
636071.21035575866699
634720.9105224609375
633303.0718822479248
631840.97054290771484
630357.69657135009766
628867.7612133026123
627377.03067207336426
625890.46602249145508
624417.28510284423828
622965.70311164855957
621535.4355640411377
620120.89873123168945
618721.03019142150879
617344.28125953674316
616005.79686164855957
652930.78415679931641
651497.21186065673828
650135.34621047973633
648858.54190254211426
647682.83274078369141
646607.31345558166504
645606.78741645812988
644645.94422721862793
643696.64978981018066
642740.34082412719727
641759.80869483947754
640733.29547119140625
639635.1122989654541
638444.75259208679199
637156.35937881469727
635779.63678550720215
634334.78192901611328
632848.20413208007812
631344.59905242919922
629838.38517570495605
628334.08145713806152
626835.30942726135254
625351.48492240905762
623891.54116439819336
622455.03960990905762
621036.1784610748291
619633.98688125610352
618256.74160957336426
616919.45603561401367
615636.76004219055176
655332.24527168273926
653832.77195167541504
652405.75818252563477
651048.37065315246582
649775.66537094116211
648603.86252784729004
647531.49845314025879
646532.4318675994873
645570.95674705505371
644620.38056755065918
643663.00465393066406
642681.24581527709961
641651.77643203735352
640546.93893432617188
639344.66531181335449
638039.38163757324219
636642.81000900268555
635177.81238174438477
633672.44618034362793
632152.44879150390625
630632.52884101867676
629116.21525382995605
627606.31272125244141
626112.42707824707031
624644.63654899597168
623202.82720184326172
621780.79721450805664
620377.02523803710938
618999.17198753356934
617662.40097236633301
616381.99961471557617
615165.97550964355469
656015.98533248901367
654524.53087997436523
653102.44377708435059
651748.61705780029297
650479.41313362121582
649311.27594947814941
648241.67491722106934
647243.57065773010254
646281.21866416931152
645328.99631309509277
644370.20680618286133
643386.62596130371094
642353.84772300720215
641242.2629451751709
640028.40339088439941
638706.97953987121582
637292.45384788513184
635810.43046379089355
634290.55718040466309
632758.78905487060547
631229.1688060760498
629704.69841384887695
628187.7951488494873
626688.21793937683105
625216.59974098205566
623772.68830299377441
622349.37517166137695
620944.67130279541016
619566.52974128723145
618230.41861724853516
616952.06938552856445
615739.60801124572754
614593.81051445007324
735745.52830505371094
733238.91014671325684
730858.69901657104492
728562.15250396728516
726290.30363655090332
724022.04229164123535
656485.19462585449219
654998.36098098754883
653578.53653717041016
652225.99884986877441
650957.8835506439209
649790.5334587097168
648720.94262313842773
647721.6842212677002
646757.18539810180664
645802.5916919708252
644842.18412208557129
643857.19779396057129
642822.06772613525391
641706.29045486450195
640485.25526428222656
639154.1134147644043
637728.83981704711914
636236.73902893066406
634707.98768615722656
633168.47105598449707
631632.27567863464355
630101.88783264160156
628579.48052787780762
627075.21639823913574
625600.40323829650879
624154.66570472717285
622730.08954429626465
621324.35468292236328
619945.66621780395508
618609.7985954284668
617332.98246955871582
616123.82424163818359
614982.21546173095703
613906.9443531036377
738784.77864837646484
736150.32188606262207
733631.88630294799805
731243.2288761138916
728938.22285079956055
726656.45479393005371
724375.85352897644043
656731.36231231689453
655246.79234504699707
653828.18662452697754
652476.35118675231934
651209.08241653442383
650042.57468032836914
648973.31300926208496
647973.68358612060547
647008.12074089050293
646052.09281730651855
645090.67044258117676
644104.67744064331055
643067.66940879821777
641948.78624725341797
640722.82126235961914
639385.37240409851074
637953.59759140014648
636455.61896896362305
634922.23198509216309
633379.04998397827148
631839.68505859375
630306.50654220581055
628781.86679077148438
627275.93054389953613
625800.24711036682129
624354.27620697021484
622929.68579864501953
621523.67576217651367
620144.79085922241211
618809.18643188476562
617533.15942192077637
616325.71628570556641
615185.93919372558594
614112.09839820861816
613101.07779693603516
261956.95417213439941
261636.09953117370605
261335.22839546203613
261052.78676414489746
260787.89640808105469
260535.63386917114258
260295.71673202514648
260061.94245147705078
259834.83831214904785
259613.48878860473633
259389.03448295593262
503715.32178497314453
502512.0316219329834
501324.10699272155762
500139.61538314819336
498949.80042266845703
497752.29402923583984
496548.35049438476562
495341.70966911315918
494140.2767333984375
492951.81327629089355
491779.12089920043945
490618.42915725708008
489460.754638671875
488296.36173629760742
487122.98537254333496
485950.13637733459473
484792.4453067779541
483659.71465110778809
482553.2492618560791
481469.39097785949707
480404.26834297180176
479356.08015251159668
478326.10293006896973
477318.49974632263184
476339.10786056518555
475391.96576690673828
474474.5629940032959
473574.32725143432617
472673.36616325378418
471759.99112129211426
470834.90587615966797
469906.17931747436523
468980.81262588500977
468060.89066505432129
467144.36146545410156
466227.21804618835449
265382.83991813659668
264941.78473472595215
264512.80095291137695
264097.25251197814941
263695.62908172607422
263307.32071495056152
262931.0508918762207
262565.82302093505859
262211.95978736877441
261871.11056137084961
261545.74387741088867
261237.41889190673828
260946.96617889404297
260672.53098297119141
260413.04234504699707
260164.09795188903809
259925.9031925201416
259693.50082015991211
259468.07168388366699
259249.27180671691895
259028.9960994720459
503853.94571876525879
502648.5611743927002
501465.5866870880127
500287.21645164489746
499101.31978797912598
497906.19240951538086
496705.91034889221191
495505.8028392791748
494312.65474510192871
493132.15327262878418
491966.70601844787598
490814.65105438232422
489670.20636177062988
488524.86671257019043
487374.52398109436035
486225.56643295288086
485090.43275833129883
483977.33024597167969
482886.24173164367676
481813.00092887878418
480755.04107666015625
479712.42389869689941
478686.3417911529541
477678.89344024658203
476693.72610664367676
475734.1423168182373
474797.66984748840332
473871.67860221862793
472938.39292907714844
471986.81057929992676
471018.66216850280762
470042.65480995178223
469066.28688812255859
468092.36439323425293
467119.48805236816406
466144.60019683837891
264931.35727882385254
264492.07092666625977
264065.49756622314453
263653.07672309875488
263256.14458847045898
262875.18277549743652
262509.56865692138672
262157.98848152160645
261819.4344539642334
261493.70332908630371
261181.59555625915527
260883.80474090576172
260600.94990921020508
260331.48360252380371
260074.5942268371582
259826.51964378356934
259587.81096076965332
259354.42788887023926
259127.88105964660645
258908.22994041442871
258687.98953819274902
503026.34301376342773
501837.57640647888184
500653.96076774597168
499462.64620399475098
498265.08041763305664
497069.52210807800293
495882.58634185791016
494705.43484497070312
493536.71757698059082
492377.00277137756348
491229.97880172729492
490098.34750366210938
488977.74109268188477
487860.22344207763672
486744.33343505859375
485636.76476860046387
484544.07819557189941
483467.20944404602051
482404.45600128173828
481356.01947975158691
480323.69845771789551
479306.67883110046387
478301.59786605834961
477307.24413871765137
476325.63286018371582
475356.37170028686523
474390.45975112915039
473413.56637191772461
472416.56047058105469
471400.99029922485352
470374.54778480529785
469344.18655967712402
468312.68593978881836
467279.38998985290527
264115.52579307556152
263690.5892162322998
263280.17149543762207
262886.74631881713867
262512.08432960510254
262156.25842475891113
261817.5390453338623
261493.35050392150879
261181.34341239929199
260880.44953346252441
260590.47356605529785
260312.14374923706055
260044.91260528564453
259788.90828895568848
259541.39393615722656
259303.29260063171387
259071.10602760314941
258846.06668281555176
258628.07573127746582
258409.28156852722168
503512.2578239440918
502304.83154678344727
501104.77485847473145
499901.68385696411133
498701.10244560241699
497513.84651947021484
496343.77615737915039
495185.31167602539062
494030.90521812438965
492879.96605491638184
491743.00410461425781
490632.13050270080566
489546.88556098937988
488474.09932518005371
487401.72553062438965
486328.27391624450684
485258.66236305236816
484197.56155204772949
483149.47659111022949
482119.37109375
481108.44673919677734
480110.41978073120117
479114.1773509979248
478113.02260208129883
477108.15819358825684
476102.60858917236328
475093.57113075256348
474072.26273536682129
473031.13626480102539
471969.8809757232666
470894.19907379150391
469810.6874885559082
468723.73850631713867
467634.74898338317871
263856.4951343536377
263432.83340644836426
263025.34648132324219
262637.18972206115723
262270.56600570678711
261925.34538459777832
261598.81556701660156
261286.89171028137207
260985.67595481872559
260692.98881340026855
260408.34418296813965
260132.80365180969238
259866.5822639465332
259610.45727348327637
259362.52868843078613
259124.27903938293457
258893.34519004821777
258671.23518943786621
258458.05778312683105
258245.01692962646484
502853.97802543640137
501620.88764953613281
500394.38614463806152
499182.43551445007324
497993.95251655578613
496828.2021369934082
495675.19607353210449
494526.04183387756348
493382.41312599182129
492259.97661209106445
491175.48344612121582
490129.4474983215332
489103.67503929138184
488076.40661811828613
487037.71596908569336
485991.12154579162598
484947.11506843566895
483918.63845062255859
482915.60058784484863
481936.05932998657227
480964.70884132385254
479982.69220161437988
478979.58452033996582
477957.05953598022461
476922.19738006591797
475878.48295211791992
474821.86139869689941
473744.61602210998535
472643.30586051940918
471522.68217658996582
470392.12440872192383
469259.30202484130859
263368.48813629150391
262962.77847099304199
262579.92928695678711
262221.83147621154785
261887.13006973266602
261571.51512336730957
261269.39252853393555
260975.96982765197754
260688.96521377563477
260408.41119003295898
260136.0191822052002
259872.4992618560791
259618.50713348388672