/*--------------------------------*- C++ -*----------------------------------*\
  =========                 |
  \\      /  F ield         | OpenFOAM: The Open Source CFD Toolbox
   \\    /   O peration     | Website:  https://openfoam.org
    \\  /    A nd           | Version:  12
     \\/     M anipulation  |
\*---------------------------------------------------------------------------*/
FoamFile
{
    format      ascii;
    class       volScalarField;
    location    "0.0075";
    object      rho;
}
// * * * * * * * * * * * * * * * * * * * * * * * * * * * * * * * * * * * * * //

dimensions      [1 -3 0 0 0 0 0];

internalField   nonuniform List<scalar> 
106891
(
1.1584855976070693728
1.1585762185250190193
1.1587000920638379498
1.1588462553048570758
1.1589943755676299642
1.1591254809740370035
1.1592280448777585455
1.1592828648638162647
1.1592976054470107705
1.1592706150270057908
1.1592049177886889488
1.1496514813995699633
1.1499980819098836182
1.1503494043366500055
1.1506832096809356258
1.1509456787072036565
1.1510775185867005987
1.151030599924479203
1.1508068254869645575
1.1504637975916565118
1.1500970046216363318
1.1497859291143359695
1.149573358537546941
1.1494538476849962549
1.1493938377408814411
1.1493781839633923081
1.1494282715524499761
1.1495933305518655221
1.1499199889304423383
1.1504217277696136001
1.1510677996285461067
1.1517989098843905982
1.1525504034282989529
1.1532785784906645077
1.1539693705518860867
1.1546255084963867876
1.1552526823817985679
1.1558505375847387686
1.1564166057011033839
1.1569517093480750081
1.1574581655747826492
1.1579346812938207112
1.1583700284208959808
1.1587412084438464266
1.1590205524783492308
1.159190314480643913
1.1592574105174302534
1.1592512329992421538
1.1592103117843601812
1.158798003244352337
1.1587627159187521286
1.1587181466446463407
1.1586645878363028839
1.1586041430280280551
1.1585420373313706222
1.1584869189450424098
1.1584499395831018287
1.1584426634712083892
1.1584736700918192298
1.1585479716479798462
1.1586601223271624228
1.1588013001686654491
1.1589513643339339755
1.1590909562810824962
1.1592053394660000176
1.1592723799015114405
1.15929761771304074
1.1592749919671243575
1.1592087253484879561
1.1502435246480884334
1.150599801246451781
1.1508684893495981783
1.1510308944016527377
1.1510777203061182128
1.150997090103378806
1.1507892274421374079
1.1504819937116819162
1.1501293222231623314
1.1497890882421406555
1.1495059691803619639
1.1493094566146473401
1.1492100432563783219
1.1492158341742337857
1.1493444825341398996
1.1496168802044048896
1.1500451109663147875
1.150615820655298327
1.1512896499327005539
1.1520165416385215185
1.1527531243821851348
1.153476584242965064
1.1541829914598416007
1.1548701809566268572
1.1555264475191913132
1.15612953140481034
1.1566591286363598901
1.1571129058240843257
1.1575120239652774146
1.1578854863917078521
1.1582487542380606182
1.1585959531532468159
1.1589043829803717944
1.1591456691543546853
1.159303239359919413
1.159379803937942599
1.158777707359678999
1.1587661659214807397
1.1587447403151163172
1.158709678070341198
1.1586601206635782635
1.1585993239814011968
1.1585360459919669118
1.1584831545814724407
1.1584545735503641861
1.1584619013504025009
1.1585128275802281106
1.1586052148571217568
1.1587332600416349049
1.1588775428676927337
1.1590188112691264255
1.1591392167709444472
1.1592140323039736849
1.1592459684321658742
1.1592246615917829455
1.1591559999853260354
1.1504659282311713309
1.1508084596954906154
1.1510021078744265832
1.1510641424020870982
1.1510289689627046794
1.1509286659769089045
1.1507662347519460599
1.1505361836867347147
1.1502391419498394498
1.149904537437763441
1.1495855171964444175
1.1493426506392012687
1.149225364947122241
1.1492651654973948805
1.149469413120324246
1.1498269658345647848
1.1503180119765799017
1.1509173772571335004
1.1515966806885513662
1.1523286525320024509
1.1530926372053911244
1.1538764763720898987
1.1546659704215893605
1.1554365381629785325
1.1561512914014624442
1.1567653309224152913
1.1572428055677035363
1.1575822606300125717
1.1578231863336638785
1.1580280986426072509
1.1582483075163925168
1.1585029811272253841
1.1587779375051963093
1.1590356649557280733
1.1592370364993764831
1.1593597180882193598
1.1587494934947590863
1.158753525317250288
1.1587411752848901791
1.1587080711203201489
1.1586548888030929749
1.1585888079295265651
1.1585230331327405207
1.1584737018123796304
1.1584556192101720384
1.1584796910208141618
1.1585460605405721868
1.1586513034031074021
1.1587780234543350044
1.1589082942395243503
1.1590234519199384966
1.1590984716957837275
1.1591328714973374581
1.1591126006438148277
1.1590451217844073284
1.1507935528354999999
1.1510425892882474308
1.1511586968420335353
1.1511895980403086259
1.1511737031498348038
1.1511062853309590448
1.1509428742551763847
1.1506495241794518769
1.1502502742016906812
1.1498214517634064435
1.1494680417852374266
1.149285976251338548
1.1493260048832181219
1.1495798509962671385
1.1499959364950744778
1.1505102588350779591
1.1510774966363315208
1.1516793781301650768
1.1523197978399863928
1.1530126918842367179
1.1537664570662506947
1.1545692161660863206
1.1553846452478300222
1.1561586477952896512
1.1568242715547698563
1.1573255564041864396
1.1576460867973692448
1.1578205501264140498
1.1579242052981102429
1.158039177186568347
1.1582176395931111923
1.1584659847648959285
1.1587487086187784335
1.1590099812340337593
1.1586751982416605422
1.1587088226791308898
1.1587362944598071923
1.1587473097424472179
1.158734136020060701
1.1586947637558384638
1.1586341709052827564
1.1585640994850423535
1.1585004965827150336
1.1584589546324612908
1.1584527953132661704
1.1584851032421070727
1.1585555661880777567
1.1586502333635717576
1.1587541712928726145
1.1588496065123330414
1.1589137331016605703
1.1589445534640856472
1.1589262756749465488
1.1588679568269615316
1.1508340914624104467
1.1511518209420708025
1.1513388874912628967
1.1514306920358174935
1.1514629001041141176
1.1514236531050781043
1.1512630296749788439
1.1509331422123325606
1.150456639105227552
1.1499227025744858111
1.1494680296878556636
1.1492204032533954727
1.1492518688271751159
1.1495585585162098052
1.1500772868015800565
1.150719802493716859
1.151415571406966043
1.1521349803651541599
1.1528781177224050047
1.1536537547913712221
1.1544605749232059733
1.1552799125910748756
1.1560801062264167705
1.1568145838841350503
1.1574288273253028336
1.1578720513683984361
1.15811658655873706
1.1581796686899246129
1.1581342173662281247
1.1580813658692641344
1.158105753103871205
1.1582434036582194281
1.1584715642497465105
1.1586692594466589945
1.158712836084734743
1.1587425219730680404
1.1587488921050834723
1.158727525211633802
1.1586800593777524249
1.1586149386007749129
1.1585445028890175578
1.1584829048074802849
1.1584435694815624629
1.1584316382663366607
1.1584511503982759528
1.1584936099186819991
1.1585504800560137983
1.1586088337486637467
1.1586509793563717352
1.1586740686412140278
1.1586613976030628592
1.1586227719909840683
1.151309414829496669
1.1515591071622475194
1.1516876976053873616
1.1517149514032383184
1.1516447443593975652
1.1514463763567823751
1.1511024258228295114
1.1506290524323714575
1.1500970130344101428
1.1496269500892333237
1.1493315297853521351
1.1492804940981744544
1.1494953623306314316
1.1499322230109019216
1.1505273742513517643
1.1512334268501438483
1.1520206136984016965
1.1528695748280961553
1.1537633541528080627
1.1546654150648560933
1.1555365862760820228
1.1563490499901651898
1.1570753074816702011
1.1576811075660664585
1.1581255050316046074
1.1583699937765552512
1.1584078641029491585
1.158294397734776604
1.1581375314400315091
1.1580477267365707483
1.1580930271656804109
1.1582680445812003622
1.1586548488467778295
1.1587065751912370981
1.1587516316977435338
1.1587786805543707214
1.1587806950372263604
1.158754887299773273
1.1587040612348207258
1.1586353086712612992
1.1585579863937278677
1.1584837603110540449
1.1584196870596441542
1.1583740802543611714
1.1583468794843165828
1.1583387656982393477
1.1583442892052224771
1.158354936638988697
1.1583683928156613963
1.1583667096551932829
1.1583577951259558247
1.1517250569519512648
1.1518694674017702084
1.1518547038548097028
1.1517074927262451745
1.1514531133416090469
1.1511183719244975077
1.150729688506829218
1.1503299305037861799
1.1499697533899069235
1.1497157914751985341
1.1496307145705808583
1.1497476488046325382
1.1500848548301774166
1.1506350915404977009
1.1513663859697302883
1.1522300343871283435
1.153168487292064226
1.154106168106027841
1.1549893283423275925
1.1557816709066253136
1.1564827603572052084
1.1571117384295981356
1.1576654929147953688
1.1581073318406802652
1.1583808614360464606
1.1584526761501292569
1.1583511574741689465
1.1581681712112705807
1.1580227367460393939
1.1579977145539488426
1.1587203194168267384
1.1587753629359023311
1.1588230032837187888
1.1588526895616344525
1.1588558509121089646
1.1588275584683531694
1.1587672356490232861
1.1586785765827671835
1.1585708620408383673
1.1584535971189282577
1.1583405627096441393
1.15824021045100789
1.1581631763002180335
1.1581121447122681989
1.1580875087548130331
1.1580889688594355746
1.1581000654534792105
1.1581252416354308465
1.1520863764613591407
1.152042877594529724
1.1518296916748258507
1.1515191447846071515
1.1511778356929769362
1.1508457010935233544
1.1505371931886054782
1.1502557715047343478
1.1500217767183180673
1.1498779560080960582
1.1498931129066152224
1.1501330500675654989
1.1506342864644212298
1.1513855660825380589
1.152321451561730381
1.1533298801007234591
1.1542970316791407726
1.1551390586191199183
1.1558342941020374184
1.1564190337661111041
1.1569478304104670041
1.1574489875522038229
1.157899548235449938
1.1582324589111610003
1.1583955691521772291
1.1583890367706877189
1.1582777477729315763
1.158161255014249047
1.1587566863587197563
1.1588135123588338971
1.1588753926070081146
1.1589288073531782697
1.1589585384989793404
1.1589523004015818142
1.1589018807498052688
1.1588054531269451619
1.158669876549464961
1.1585064396188478053
1.158334753499292713
1.158172017680020538
1.158037223060197185
1.1579399005093558017
1.1578871464122824086
1.1578781309152976764
1.1578987895018335585
1.1579513345733796204
1.1521684680603496709
1.1519556387166236533
1.1516499245500468884
1.1513260444703001806
1.1510228966049815824
1.1507427699262438026
1.1504697174356992573
1.1501972150902197711
1.1499670944387250238
1.1498637194061709366
1.1499820578246437996
1.1503965303925847152
1.1511222282035529219
1.1520810578699116622
1.1531314632550697663
1.1541236527530014389
1.154960719365566213
1.1556293394273775554
1.1561800729628393114
1.156672614175481506
1.1571452171497378369
1.1575860346252262456
1.1579520411165999949
1.1582013978279477318
1.158324752292143156
1.1583545539877508901
1.158345397760710771
1.1588900023274304463
1.1589588604542506722
1.1590233130322373789
1.1590646232294838924
1.1590656518752084914
1.1590138479794218629
1.1589053069167707388
1.1587461851296705362
1.1585500091416840451
1.1583396116416115884
1.158136536551479967
1.1579646489719459534
1.1578377389115501739
1.1577668184157567932
1.1577496906635265095
1.1577750651118352554
1.1578420864354568298
1.1522467799233244712
1.1520953492242009819
1.151790078344435031
1.1514019206955814489
1.1510090822355001361
1.1506693123209628116
1.1504139563741582197
1.1502430659884754771
1.1501519574943304125
1.1501516149744603901
1.1502769176754270575
1.1505893875793227199
1.1511340927590230088
1.1518967719300030605
1.1528010023933104033
1.1537283821283446095
1.1545681725087397762
1.1552593635340906442
1.155810850545371915
1.1562718903104933776
1.1566968344846271233
1.1571147210283190265
1.1575154976130188622
1.1578755901755539703
1.1581770327191447389
1.1584116842881606591
1.1585824025995046238
1.159119365359171594
1.1591801404491184346
1.1592107711149894911
1.1591941305853781241
1.1591203339079012569
1.1589885112925475408
1.1588077192247279168
1.1585946174037229373
1.1583718062203451904
1.1581607561804632134
1.1579837479097163655
1.1578517650325965693
1.1577765030852213979
1.1577549868212713147
1.1577796200523586823
1.1578481859369227358
1.1521425078697011823
1.1520252915676585381
1.1517766695802873489
1.1514312722281032642
1.1510327393936796714
1.1506382501458922718
1.1503027113987851493
1.1500636523054907912
1.1499433001453640557
1.1499467774225093919
1.1500851716247157963
1.1503850184827910663
1.150865937022824026
1.1515130722595885437
1.1522800974036071509
1.1530931982441257055
1.1538760431624377478
1.1545798612217030854
1.1552034172624519037
1.1557698257130202268
1.1563076183128266905
1.1568265807272006818
1.1573160426250137522
1.1577571645447299886
1.1581297200101747791
1.1584251945078094526
1.1586490869372767509
1.1588029371220964769
1.1593947681419836115
1.1594006029530368185
1.1593523254078925699
1.159246566197581263
1.1590893906748387376
1.158895762123370865
1.1586851115539349433
1.1584785283990164384
1.1582934551821633118
1.158145097867385287
1.1580376548306803297
1.1579783414467927916
1.1579605876081093818
1.1579800670932769435
1.1580350352492849719
1.1518404435564488786
1.1516103357145135444
1.1512843225345230636
1.1508856461989294129
1.1504727265356771149
1.1501142548393050724
1.1498729642757512526
1.1497806823335576798
1.1498291947149588133
1.1500007426809955025
1.1502839963370603549
1.1506782898310357055
1.1511879755828582361
1.1518050186506421095
1.1524953299598681422
1.1532131644057870279
1.1539228851010674415
1.1546060572166569891
1.1552592071095173498
1.1558886168090305446
1.1564937406615143356
1.15706406519723215
1.1575791683169009971
1.1580191770274004259
1.1583740882251332138
1.1586402349455968697
1.1588159092637557723
1.1595884920282319985
1.1595122696408246554
1.159382344888186811
1.1592109080233568008
1.1590173826914929034
1.1588220499450583301
1.1586437644455180873
1.1584950746964306489
1.1583841525446483267
1.158308846113367041
1.1582707455653906692
1.1582596182832176623
1.1582726741079940602
1.1583082413582923564
1.1512926472434543701
1.1509540837537020064
1.1505558177775125905
1.1501613424478636105
1.1498544977738436312
1.149710816356236176
1.1497525976084821409
1.1499466081915992177
1.1502339592374104527
1.1505638938203477384
1.1509222065474584706
1.1513289835323210486
1.151808277640670175
1.1523710006718805854
1.1530067045603356046
1.1536862700760661671
1.1543743491067730567
1.1550487890859575391
1.1557016986711270423
1.1563313558666772352
1.1569312431046272494
1.1574825583409431573
1.1579598850998831239
1.1583415515412911478
1.1586153803322591926
1.1587805631365601933
1.159686230836238563
1.1595428251499733108
1.1593701165889267468
1.1591897277920226728
1.1590216383295703917
1.1588811448415137217
1.1587750988706078115
1.1587051617610968357
1.1586635534364511102
1.1586465875599785136
1.1586413217537214759
1.1586457708780726339
1.1586580691244490193
1.1508213396180477783
1.150417680888577765
1.1500118273264925417
1.1497025840804471208
1.1495714588744236906
1.1496365078489811928
1.1498539298751413451
1.150147458746162199
1.1504550761261200797
1.1507661974102281199
1.1511184505172211701
1.1515663453055324794
1.152145700265695849
1.1528498146823020765
1.1536302806351064199
1.154422309740497532
1.1551772515895570859
1.1558742236282706362
1.156516473778216092
1.1571100093609223425
1.1576484390362880017
1.1581111781345538869
1.1584725685112051696
1.1587152807721476933
1.1588422309365165042
1.1597227924973194657
1.1595634711327065247
1.1594085208935209774
1.1592757641063209384
1.1591761399841444824
1.1591113891494591037
1.1590783006092055807
1.1590646423509045615
1.1590637888798731581
1.1590606211278222659
1.1590545708001913638
1.1590435346180334442
1.1502825161351315497
1.1498936537996897744
1.1496176110368696577
1.1495309746526551908
1.1496484094363044193
1.1499163513959753669
1.1502461619688186811
1.150571595787355017
1.1508841090898114246
1.1512274594476810119
1.1516672056484194009
1.1522475987200062608
1.15296184704456528
1.153752951929134074
1.1545460188234057952
1.1552851094017659861
1.1559518229868848138
1.1565576001841690879
1.1571185132093653181
1.1576345867852355642
1.1580839555740731761
1.1584355944801332239
1.1586662701781853535
1.1587778699414237327
1.1497367130578806105
1.149513766233651646
1.1494773628228451834
1.1496244850605734644
1.1498957364404311932
1.1502093553790717628
1.1505150845384581881
1.1508189347127473212
1.1511734725292956938
1.1516448487677906076
1.1522716274206392661
1.1530347953435924335
1.1538652457007014807
1.154679748843366216
1.1554170015765703461
1.1560617638167238752
1.1566342371071351991
1.157160521822333088
1.1576463970655443969
1.1580722824637093016
1.1584054570827624353
1.1586244761144874893
1.1587331882148010909
1.1497633936180797765
1.1498048355694563405
1.1498875777508537066
1.1499649707674512999
1.1500297708232662952
1.150124753927983301
1.150328175518622098
1.1507166509743584903
1.1513225074660178304
1.1521137299245287622
1.1530069820193447061
1.1539042814825981598
1.1547349217440316949
1.1554755725893979257
1.156138371911847873
1.1567443080373458475
1.1572954208466732506
1.1577705189878857439
1.1581407580394345036
1.1583925442324620736
1.1585372038545291851
1.1500774705876992687
1.1502626801514961308
1.150569816902016651
1.1510473064370352336
1.1517028971209701815
1.1524942743553787672
1.1533448401022117213
1.1541755201339929382
1.1549376692799837585
1.1556234009687977871
1.1562508910837929754
1.1568371087026585453
1.1573767965763144261
1.1578431320250328618
1.1582066827279684507
1.1584571701996313475
1.1586094720246506995
1.1521220950386539261
1.1528742525171775668
1.1536482048461194072
1.1543867814079107337
1.1550642721294157589
1.1556868157769490946
1.1562748008035128588
1.1568377879167117683
1.1573616944222906433
1.1578152091063678153
1.1581720435984854678
1.1584279218030859582
1.1586011507842914892
1.1524598649937676242
1.1532046178554480331
1.1539306738675616515
1.1546222506898369264
1.1552870859182291507
1.1559357296969985374
1.1565609875776576843
1.1571357081866904259
1.1576256937461140151
1.1580118286588834131
1.1583002946664739952
1.1585148292506446399
1.1504601412603465693
1.1500387137188921027
1.1495539677311006344
1.1490455217699953039
1.1486178216190998658
1.1484099045593885169
1.1485336462568107585
1.1490162461692536855
1.1497866466311017497
1.150710837684288057
1.151638221835619369
1.1524425320276319162
1.1530417613864607507
1.1534020460871465819
1.1535335806774171807
1.1534781215434148915
1.1532906182376507775
1.1530262791354883856
1.1527418674070264437
1.1524942712067827166
1.1509178625709874932
1.1504855305009569211
1.1500999398550335595
1.1497190398663350575
1.149313356606908032
1.1489236658366945854
1.1486561184909325206
1.1486312359951982298
1.1489089163180163933
1.1494643177323160543
1.1502184131663535371
1.151066659781657453
1.1519077525905836445
1.1526545974218278534
1.1532327422953745355
1.153593762126675859
1.1537200551159212392
1.1536313262211752573
1.1533875998280962438
1.1530789878747698118
1.1528006758053046532
1.1526082975232070371
1.1522068613120086678
1.1516134121525609668
1.1509965319233208536
1.1504692441771495748
1.1500482875381237147
1.1496999519794470768
1.1493714304230653322
1.1490565402423316144
1.1488246508670563184
1.1487690144482347598
1.1489446923141184431
1.1493408122470851751
1.1499143425995896894
1.150615128439694157
1.1513930138380763513
1.1521835849686379305
1.1528999682197960119
1.1534465622487590775
1.15374555935462908
1.153773566839045861
1.1535803820720222923
1.1532769856634419448
1.1529877193354460818
1.152787216583208485
1.1526669828845617083
1.1525558008867420323
1.151830092313595566
1.1514788715344381753
1.1509932495392567464
1.1505019548889829917
1.1500735102378256691
1.1496969927533096101
1.1493320544117766602
1.148968146937367818
1.148648754279227413
1.1484889901956916169
1.1485918916233297526
1.1489700014886710111
1.1495379536211931537
1.1501799968990635836
1.1508137613279083578
1.1514066553014346006
1.1519447182315021294
1.1524068545056092017
1.1527478620425990474
1.1529144501704360337
1.1528832167211104931
1.1526960501047054386
1.1524534502520382695
1.1522598296680619523
1.1521641472825276953
1.1521293079702912276
1.1520688951052304727
1.1519233133000472691
1.1496810677919029331
1.149712754305477036
1.1496899558926578777
1.1496026133347463372
1.1494463462898807382
1.1492230125020328479
1.1489446199039650143
1.1486482983525354573
1.1484283091025295764
1.1483957239241349146
1.1486458919323634387
1.1491896125936211792
1.1498855221638197843
1.1505102341932507137
1.1508830841450832239
1.1509633004159205427
1.1508523650773228031
1.1507054138070857974
1.1506405440593450162
1.1506816704579743149
1.1507682726418031471
1.1508205092295555882
1.1508093774305023782
1.150780872250503295
1.1508043296227636887
1.1509156586438775705
1.1510841751541265321
1.1512486710874696438
1.1513827737546036278
1.1515231818659279472
1.1491381387044143914
1.1494702443989641694
1.1496781552109474056
1.1497499331581100268
1.1497180007038723115
1.1496186053032804164
1.1494610924741621716
1.1492311821124467919
1.148924115568199511
1.1486024502988338991
1.1483923153022306263
1.1484274386826174297
1.1487633904360723403
1.1492974965933431264
1.1498218251548888436
1.150158234966404347
1.15026530496032664
1.1502380462314745202
1.1502208004743523784
1.1503101702587761324
1.1505027566334713462
1.1507165888794161912
1.1508688896088974385
1.1509537948945727237
1.1510489831997430255
1.1512449555110815247
1.1515598319212982936
1.1519236601614291082
1.1522225162186325864
1.152390674275433069
1.1524553584433092634
1.1525040421263696988
1.1498469438211345039
1.1501943360898732038
1.1504244916085244466
1.1505262222706997832
1.1505421324128577432
1.1505184450868655155
1.1504611237852131467
1.150340196635520007
1.1501247608850095894
1.1498564631398440206
1.1496682036355578838
1.1497047887029774316
1.1500310870979348898
1.1505533390526256898
1.1510517583016892651
1.1513505206267102832
1.1514136947811115519
1.151359438722370232
1.1513607168351089882
1.151523347310183798
1.1518398390427770916
1.1522067491135550288
1.1525141697594667445
1.152734773392583012
1.1529343321403631162
1.1531941876255651369
1.1535242990573464361
1.153848416192725157
1.154064426102761054
1.154130619403119562
1.1541105883260376341
1.1541216814872712337
1.1542564966344845967
1.1527212555185961662
1.1517537387493592682
1.1512597622587534829
1.1514301001843845196
1.1521110964269232202
1.1528092958646189992
1.1516705904443385045
1.1520466565140285997
1.1522911344353614638
1.1523956901831182709
1.152411508727385403
1.1523911010402125843
1.152340768770042434
1.1522211566611955114
1.1519957682117816233
1.1517015362864526651
1.1514831167410539692
1.151502659664883188
1.1518303179352655796
1.1523684897359902646
1.1528841127992461857
1.1531862660855776159
1.1532383355252047163
1.1531657292316745966
1.1531500520397179876
1.1533031819893158065
1.1536118336449774358
1.153963163488588517
1.1542394702616156632
1.1544150263196184536
1.1545650514663259312
1.1547805954799843509
1.1550741322166360181
1.1553618530858165148
1.1555365043420671167
1.1555572867955812288
1.1554932035216758379
1.1554716488745992997
1.1555852930825849523
1.1558339824626111536
1.1561248122982514808
1.1551482268966952738
1.1541658688111708919
1.1536906316112367499
1.1539153538914672659
1.1546536492878174407
1.1554038297633162369
1.1538632712746810238
1.154218536472508605
1.1544318626139533635
1.1545006821023295895
1.1544815119495499545
1.1544301352762702528
1.1543562854558360176
1.1542125316744000774
1.1539577402162117803
1.1536275352012650419
1.1533680637336509722
1.1533571744972135331
1.1536627914906625314
1.1541835593606009081
1.1546831150537233412
1.1549531104750292432
1.154967687662888487
1.1548535554264227621
1.1548003060020914923
1.1549243315033637103
1.1552091611904706792
1.1555373841428044912
1.1557859165557398118
1.1559307988284563962
1.156051408916514589
1.1562429302058132574
1.1565177689380381487
1.1567864286189508682
1.156935632518585555
1.1569266040064427603
1.1568307203667302918
1.1567821000512688023
1.1568763203167107267
1.1571102622894242629
1.1573830695722897577
1.158390425898168985
1.1582448964387026535
1.1581344954298944394
1.1580697063307821004
1.158054898685998646
1.1580933685499152919
1.1581847717809956588
1.1583158510618236647
1.1584833365736009192
1.1586654342285551689
1.1588444733961575928
1.1493831754135030998
1.1495842624224803519
1.1498417134853207155
1.1500943407282873121
1.1502918830180268728
1.1504010884493434119
1.1503906140222408538
1.1502352351660731777
1.1499362099092174105
1.1495465327024669833
1.1491718246607456333
1.148930687273363338
1.1489000062231728982
1.1490749976489980089
1.1493825175879990308
1.1497450999234419822
1.1501408583711103528
1.1506139824796710602
1.1512286316370026196
1.1520053013983655443
1.1528894146469861326
1.1537694752809013465
1.1545348630440228632
1.155135252036283644
1.1555995809863750523
1.1560041908260485499
1.1564210028172898781
1.1568813736633658529
1.157360342929548036
1.1577967842101810625
1.1581382135729794136
1.1583664246242788565
1.1585000105108154145
1.1585700777426160002
1.1585961474133035232
1.1585794000344451504
1.1590123736846806857
1.1590876958875082625
1.1591508985707026369
1.1591854665405156855
1.1591778060972952602
1.159120802242536552
1.1590151238399653
1.1588689626924881804
1.1586961128711050772
1.1585142477550665063
1.1583415665564040786
1.1581956256275542927
1.1580882097920941476
1.1580300884642600323
1.1580237399093218364
1.1580714429971137314
1.1581708369258350011
1.1583070043552552431
1.1584762031677229288
1.158653271961007647
1.1588230588431054358
1.1494921884451601013
1.1496512474659752456
1.1498774928667876427
1.150111933103992401
1.150304522666931506
1.1504188014383067706
1.1504304154542095429
1.1503084401375618384
1.1500502950622280007
1.1496948762043612824
1.1493367551436308727
1.1490932755001526111
1.1490452913861164408
1.1491999626673734536
1.1494958172649374362
1.1498609680502305253
1.150271068324833168
1.1507595250959152811
1.1513802816622680236
1.1521494507219236514
1.1530146703140791153
1.1538756320221634777
1.1546340709459039786
1.1552432042020919223
1.1557288120878657089
1.1561610223555331967
1.1566026349855671462
1.1570764334878733681
1.157556391496342707
1.1579863624682300571
1.1583190384305337428
1.1585419100097298362
1.1586722501291819576
1.1587321938194252713
1.158731729413678524
1.1586678330043147511
1.1589572991437862015
1.1590101210553775957
1.1590571824666409118
1.1590842911549616989
1.1590778022468348762
1.1590280585918706358
1.1589322049146970617
1.1587955421344484641
1.1586304038643944203
1.1584539800338409243
1.1582849113530733209
1.1581422933672540498
1.1580398970067335984
1.1579897695054781614
1.1579930819426045296
1.1580501882777065603
1.158155268998963594
1.1582918130692088088
1.1584556793640670147
1.1586193635988764061
1.1587714569801095266
1.149791933603786287
1.1500227477621636218
1.1502600010851868895
1.1504490872989623362
1.1505550535519182276
1.1505609019035349938
1.1504468802676612871
1.1502155389182349143
1.1498958419359790462
1.149570392746682268
1.1493461937087585678
1.1492992127101540056
1.1494438986283832538
1.1497340999404066508
1.150105400339529016
1.1505289250510797316
1.1510237415760788959
1.1516279382831888789
1.1523553196128168974
1.1531643192744334137
1.1539730252297017987
1.1547059172338678401
1.1553252047600919283
1.1558482794812723338
1.1563262554562245832
1.1568018913766568989
1.1572839891153463565
1.1577456175068592259
1.1581434250267450548
1.1584454313572110085
1.1586469238449259578
1.1587625435705621868
1.1588067650707087886
1.1587807907436122878
1.1589279393392000195
1.1589538524580136336
1.1589685227343591301
1.15895948500197421
1.1589160027250358098
1.1588323691342317101
1.1587101780423341157
1.1585592454404101126
1.1583951956211975265
1.1582363355647762315
1.158102258847242938
1.1580070785491225482
1.1579639830469856676
1.15797404167344542
1.1580368866923689275
1.1581437959336293719
1.15827606719959042
1.1584281288851716596
1.1585710678276019969
1.1586974262497504728
1.1500802432759738014
1.1503439859407824652
1.1506018976138023824
1.1507960066583411418
1.150890543695064272
1.1508662008787173825
1.1507239249699567907
1.1504635659479671705
1.1501250069981221458
1.1497853326680267383
1.1495421719984544318
1.1494797818737385597
1.149625926609389559
1.1499504576051133853
1.1503943986127982413
1.1509124971326980535
1.1514942427888392729
1.1521497642072713319
1.1528760889150795332
1.1536444557411180689
1.1543986942716693012
1.1550891623269781139
1.1556961206300653267
1.1562306318127528737
1.1567234304988158744
1.1571954961759016722
1.1576441035889228903
1.1580482817386077432
1.1583808565170523597
1.1586260717923551056
1.1587853944193253763
1.1588688969176221821
1.1588814322910061527
1.1588197080127720096
1.1588295466524685118
1.1588325987168843767
1.1588332128939646815
1.1588205353777809581
1.1587838483726771166
1.1587154977514908527
1.158613889178017331
1.1584851625368901562
1.1583427042095035819
1.1582031870829128106
1.1580853047496246777
1.1580032321931479355
1.1579698806655804866
1.1579862497191482085
1.1580520340412023828
1.1581563045564207126
1.1582800123328704789
1.1584162667857387241
1.1585346557363429554
1.1586311224180148027
1.1505854070160304037
1.1508794730141920226
1.1511044147884381683
1.1512226048123215261
1.1512169275489188003
1.151085623039173278
1.150834994622178753
1.1505050386688386865
1.1501593528299429714
1.1498822548979128477
1.1497547543409154525
1.1498142933052593051
1.1500479119115789572
1.150415328228363343
1.1508739230347104776
1.1514006171232542552
1.1519931803561156425
1.1526481898562668249
1.1533525245605873444
1.1540807906067704902
1.1547967617162355758
1.1554782551850411032
1.1561155488152932147
1.1567060653488137056
1.1572449229510410884
1.1577180378449392073
1.1581137411133575199
1.1584239572617334169
1.1586476715280726868
1.1587900723624879884
1.15885916023615132
1.1588549845055031717
1.1586915472237862001
1.1586761085484320599
1.1586579876508826814
1.1586266235479278919
1.1585737956807415916
1.1584953881642310325
1.1583946952509811545
1.158281664951562151
1.1581712061282105619
1.1580804545568841313
1.1580214427678923172
1.1580058087873335015
1.1580329427166025091
1.1581021515106468822