/*--------------------------------*- C++ -*----------------------------------*\
  =========                 |
  \\      /  F ield         | OpenFOAM: The Open Source CFD Toolbox
   \\    /   O peration     | Website:  https://openfoam.org
    \\  /    A nd           | Version:  12
     \\/     M anipulation  |
\*---------------------------------------------------------------------------*/
FoamFile
{
    format      ascii;
    class       volScalarField;
    location    "0.0075";
    object      rho_0;
}
// * * * * * * * * * * * * * * * * * * * * * * * * * * * * * * * * * * * * * //

dimensions      [1 -3 0 0 0 0 0];

internalField   nonuniform List<scalar> 
106891
(
1.1584881497361632086
1.1585805116753942201
1.1587057091628463201
1.1588525087594221397
1.1590003899707226331
1.1591303996518353969
1.1592311676582460755
1.1592838066930593044
1.1592963752578675507
1.1592674916469196678
1.1592005010601718062
1.1496520569866390815
1.1499977505009921774
1.1503498260294970912
1.15068485266423437
1.1509474668778449935
1.1510777609281916956
1.1510280509065693444
1.1508018376840993824
1.1504581842760643884
1.1500927098201718657
1.1497836899124922461
1.1495723889232196679
1.1494519407175083359
1.1493890963530031257
1.1493703961453156648
1.14941889322112889
1.1495847459331616225
1.1499140161799406012
1.1504187817221169787
1.1510669473891612657
1.1517986714129038184
1.1525497385949612372
1.1532775067603155961
1.1539687822916644411
1.1546264173499878325
1.1552557474672136006
1.1558559082958532738
1.1564242171066576592
1.1569613571143995134
1.1574694694557186025
1.1579469447442147789
1.1583821167368282268
1.1587517147121384475
1.1590281772629338342
1.1591946004619086974
1.1592589936433945752
1.1592513651392102325
1.159210239042773205
1.1587959381046457619
1.1587604292505699899
1.1587155501595205465
1.1586616203550490489
1.1586008593195011862
1.1585387075191801998
1.1584840141116690138
1.158448047231735778
1.1584423074437386614
1.1584751625764810878
1.1585513339954622847
1.1586650386515522371
1.1588071427717996364
1.1589572765040785374
1.1590959939436995541
1.1592086332142375049
1.1592733771930749942
1.1592961307736129317
1.1592711336938783528
1.1592030360861738103
1.1502439342971688685
1.1505982239757561736
1.1508660124793395063
1.1510283634816074194
1.151075308058181923
1.1509942403336090866
1.1507855235506372349
1.1504776628317916476
1.1501249706547611584
1.1497850636266777613
1.1495021652861203698
1.1493053323120276943
1.1492049708724039192
1.1492097741282416568
1.149338097072634568
1.149611181657425707
1.1500407732246635817
1.1506127639913243943
1.1512872839951511228
1.1520143513144081027
1.1527511357738495779
1.1534755246220937952
1.1541837407349309075
1.1548730831309803602
1.1555310606046365063
1.1561349412057142505
1.1566646488979754892
1.1571186153227990268
1.1575186694721364411
1.1578936684142422386
1.1582582976619786308
1.1586059300387712145
1.1589134591402232566
1.1591526562334744099
1.1593076884993636089
1.1593820026376624455
1.1587771816404999203
1.1587653662464174609
1.1587434066591129067
1.1587076071556476897
1.1586572734677993424
1.1585959098876468243
1.1585325555726266877
1.1584802479835896172
1.1584529691954581487
1.15846213985313784
1.1585151149130648029
1.1586093792071996411
1.1587387127377408724
1.1588834008746418114
1.1590240631489432399
1.1591428440348718887
1.1592152933246011592
1.1592444849465433077
1.1592204014475990803
1.1591494313405308336
1.1504670901671882888
1.1508053214279412302
1.1509962824258379577
1.1510581848415903927
1.151024668917139504
1.1509263506215539064
1.1507645166375264356
1.1505333417091594406
1.1502341699155258503
1.1498976084494743066
1.1495777941125016053
1.1493354561899233879
1.1492196525625915093
1.1492611604776041823
1.149466639447165095
1.14982467311389569
1.1503155403985081406
1.1509143718935839207
1.1515932173531282512
1.1523253194743729999
1.1530904884487636064
1.1538765938671904365
1.1546688190894949244
1.155441611274381053
1.1561571360097082639
1.1567701028249564033
1.1572453056101503766
1.1575828584779572772
1.1578236096702805291
1.1580303483834291089
1.1582534830684676486
1.1585108309260088166
1.1587870660386676569
1.1590442084781547027
1.1592434983710746543
1.159363404587263835
1.1587503025474588103
1.158753623788361331
1.1587401776149766075
1.1587058152366667141
1.1586515199925102593
1.1585848144900741108
1.1585191493525910378
1.158470764549222265
1.1584543527867843249
1.1584805187965590001
1.1585489919373446188
1.1586558782237594833
1.1587833827068863002
1.1589133785449774461
1.1590271519400250355
1.159099890766115859
1.1591314985971363782
1.1591083319418427067
1.1590383449801695548
1.1507904593420781314
1.1510360074471099878
1.151151827198126032
1.1511852486171056942
1.1511724731428876201
1.1511062495322224031
1.1509405831841650336
1.1506429773834032648
1.1502398480893789579
1.149809455008864667
1.1494575817573784438
1.14927936273684006
1.1493236069236072439
1.1495801750310272737
1.1499966386699866927
1.1505094508434099421
1.1510746484889187169
1.1516753252167251098
1.1523161514118627213
1.1530111539169993762
1.1537681117923186402
1.1545739977361417772
1.1553913563580713308
1.1561652094486418729
1.1568282554560063158
1.1573254470577563069
1.1576422200500653403
1.1578150153129407318
1.1579200217264975503
1.1580387479450782173
1.1582217449947944665
1.1584735848296023875
1.1587575387845718833
1.1590176091791368762
1.1586778406024944577
1.1587113683222529659
1.1587380366413617683
1.1587476858099869936
1.1587328298205041843
1.1586918483458295004
1.1586300943460661195
1.1585596208013642094
1.1584965030906799743
1.1584562532363231746
1.1584519410432456699
1.1584862494397201171
1.158558426033352573
1.1586541170012520929
1.158758138492244516
1.158852619285563712
1.1589148882560476039
1.1589432522962805905
1.1589223235665901957
1.1588616462407128616
1.1508326316005341727
1.1511470398674372717
1.151333416986755287
1.1514271107534281846
1.1514619768260785371
1.1514233929995010275
1.1512599735054549477
1.1509249525892504273
1.1504437637861992805
1.1499079673402821111
1.1494553914405023498
1.1492127114849373104
1.1492496714111697376
1.1495600845439484239
1.1500796724522732717
1.1507206597353871746
1.1514142770949520322
1.1521325967947404489
1.1528764880437303297
1.1536544338950056598
1.1544640611864107616
1.1552857548774986274
1.1560870118141017837
1.1568205333374064203
1.1574316523214382979
1.1578700963007040325
1.1581094874949955376
1.1581691749638443056
1.1581237096836618505
1.1580743739228178679
1.1581043408117115412
1.1582474461777552133
1.1584788182666547751
1.1586735792800157974
1.1587164832056331409
1.1587447801976578088
1.1587493316224077855
1.1587260641458914101
1.1586770294060824149
1.1586109738011076686
1.1585403936225600052
1.1584794307698027538
1.1584412899288019094
1.1584308393685156524
1.1584517758240988616
1.1584952440923479422
1.158552509583352208
1.1586105157130572874
1.1586516135394397953
1.1586731336290136962
1.1586586314685285437
1.1586182516486036587
1.1513081761691505989
1.1515564058205134401
1.1516850853008573363
1.1517131618120290959
1.1516425877805021027
1.1514416888104002101
1.1510936619650875556
1.1506162453252302136
1.1500823068612417988
1.1496137961209962342
1.1493220691956880231
1.1492758167016370319
1.1494944883853908113
1.1499329173384695846
1.1505280966195314818
1.1512339141025171863
1.1520214275005113969
1.1528716463385153546
1.1537671231246213743
1.1546704195964379025
1.1555422646964559341
1.1563547626536152535
1.1570799665634963205
1.1576831817103547806
1.1581232281006816898
1.1583621035761739737
1.158394951720579602
1.1582795330037118919
1.1581249136595259674
1.1580407305014106534
1.1580927287725391039
1.1582726164636607535
1.1586601475584052956
1.1587116181973617923
1.1587556807671572923
1.1587812288002889982
1.1587814959647093627
1.1587539684714605048
1.1587017394121541525
1.1586320848383211413
1.1585544545306385444
1.1584804835402826573
1.1584170646517064629
1.1583723454375494111
1.158346069094703612
1.158338707447408078
1.1583446816168032623
1.1583554371505238034
1.1583685927256612835
1.1583663015352709813
1.1583566330294006175
1.1517252819788235119
1.1518675001910267941
1.1518511178925321392
1.151702780220018818
1.1514471771296215241
1.1511107634597244065
1.1507200126107526295
1.1503184406521167471
1.1499571359535352144
1.1497038358357105636
1.1496205640875793996
1.1497403682674471881
1.1500811687437539899
1.1506351536872543306
1.1513697315240105645
1.152235910940320629
1.1531754984516857654
1.1541127254888616793
1.1549944637355560317
1.1557851765923188303
1.1564854389077046104
1.1571142151440021451
1.1576669021068228815
1.1581057210021539206
1.1583740087747702585
1.1584401900298602062
1.1583351946156426049
1.1581528511066188081
1.158012074332289254
1.1579934676238501368
1.1587257921467095656
1.1587804968397215077
1.1588272294938330997
1.1588555932922905978
1.1588571444494002449
1.1588271267549039578
1.1587651474975149135
1.1586750992205998578
1.1585664659769643325
1.1584488651701709827
1.1583361019388878077
1.1582365910427885325
1.1581608289317104621
1.1581112596299212303
1.1580880506897144322
1.1580906529147727557
1.1581024781448179262
1.1581279153342523003
1.1520846081735345301
1.1520379517314744966
1.1518231644684941983
1.15151268333660739
1.1511718235508054953
1.1508392902419619652
1.1505287570512712225
1.1502441994608205711
1.1500073596909941021
1.1498626921971548676
1.1498801745392872586
1.1501254416866222297
1.1506336663067258108
1.1513917493305267925
1.1523318933270507713
1.1533409811912205267
1.1543053474742577258
1.1551430205976984666
1.1558344942233300667
1.156417825028661639
1.1569471244839146795
1.1574492228568489249
1.1578987672410434584
1.1582281181225888567
1.1583863311344140268
1.1583759287159982598
1.1582639525756239784
1.1581502548010040865
1.1587619434306724031
1.1588191670738146044
1.158880851918490329
1.1589333691939709414
1.1589615479764570072
1.158953258951153531
1.1589005072846316757
1.1588017962984935583
1.158664304076187479
1.158499651382195017
1.158327706588027306
1.1581657171403818563
1.1580325838211464884
1.1579375858513272224
1.1578874346523500005
1.1578808432490688141
1.157903421829851176
1.1579571124540986027
1.1521633064125733625
1.1519490412395338996
1.151643843041380233
1.151321257507476048
1.1510183290101734244
1.1507363186459413917
1.1504592840922849284
1.1501824356860559373
1.1499502237225496248
1.1498485216993650226
1.1499725984924831224
1.150395650015875848
1.1511297138261540329
1.1520934128669546581
1.1531434722412949867
1.1541311424999560753
1.1549621455715903817
1.1556263871294765178
1.1561756118564192608
1.1566691900036871754
1.1571436748585965937
1.1575852804570212484
1.1579501938914356085
1.1581970408681416806
1.1583179384829549452
1.1583466265562119002
1.1583380786392414308
1.1588961767468679565
1.1589652907708491991
1.1590290948725658904
1.1590688164067128874
1.1590674308679818072
1.1590127226805433391
1.158901248805567219
1.1587396088045986975
1.1585417829905160225
1.1583308841352386587
1.1581285462966701694
1.1579585742900151413
1.1578344274286873627
1.1577666934671526633
1.1577527294676108749
1.1577808142308174677
1.1578496531077631104
1.1522435408215296881
1.1520899224702119135
1.1517836052617602682
1.1513958684692755519
1.1510040440477709023
1.1506648609488636659
1.150408737202886833
1.1502355299773205921
1.1501416169703404524
1.1501395598997916636
1.1502659975433575656
1.150583067003186466
1.1511343854066531378
1.1519029129064806138
1.1528099660562469708
1.1537360544747237157
1.1545715616568537065
1.1552578489673355211
1.1558061619067596659
1.1562665344727680594
1.1566929558207035278
1.1571129313401748995
1.1575151716527285473
1.1578758500788959296
1.1581771482612857049
1.1584111410927275809
1.1585809194437217684
1.1591267221468422033
1.1591866145824729628
1.1592153425188562732
1.1591959648860501453
1.159119003345516985
1.1589840605527454986
1.1588007280954424338
1.1585860882990917098
1.1583629568888900163
1.1581528743916731372
1.1579779448518308094
1.1578488281179055708
1.1577768527366023577
1.1577585876705382972
1.1577860983008629869
1.1578568373312438933
1.1521380905534484018
1.1520198828033596516
1.1517707964563912437
1.1514253527999982474
1.1510270577247845303
1.1506331865639145562
1.1502981931266027527
1.1500593912659904383
1.1499388294752606043
1.1499418352646237906
1.1500806426166205743
1.1503823523108345217
1.1508659685084956514
1.151515419385685135
1.1522833369189804387
1.1530953355960380513
1.1538755314121909024
1.1545767763825254271
1.1551992108842046303
1.1557663489475307195
1.1563061905984468591
1.1568273801022743719
1.1573184425943077169
1.1577601292006849398
1.1581323023896452629
1.158426939012005219
1.1586497445452448307
1.1588019120956940533
1.1594010206685696485
1.1594043938939573302
1.1593531297395600621
1.1592443471977935676
1.1590845773690949816
1.1588891950391613239
1.1586778545719613742
1.1584716856590377976
1.1582880202008780657
1.1581418005714263497
1.1580369624864026434
1.157980435482967696
1.1579653246984067394
1.1579871503626795182
1.1580439765225514215
1.1518351500240961993
1.151604936964192083
1.151278460485445132
1.1508796573887940529
1.1504676486860612172
1.1501110762530852849
1.1498722298008461351
1.1497816837757073305
1.1498305340415437836
1.1500013824918207117
1.150283618090472304
1.1506772068310235912
1.1511868062888614972
1.1518037767055853138
1.1524935658105925906
1.1532105576444795503
1.1539197931014588683
1.1546033214736821648
1.1552579179319006908
1.1558895212900990312
1.1564968307022487348
1.1570685906265671949
1.1575839838275494564
1.1580232882335124156
1.1583768396285378799
1.1586411188608969347
1.158814488592301517
1.1595910138872560502
1.1595117392440459358
1.1593791638645478681
1.1592059221828472371
1.1590116570041082422
1.1588166375874751068
1.1586395740229817886
1.1584927132266955585
1.1583839172882883783
1.1583107894001634097
1.1582747333277589874
1.1582653883596107924
1.1582799803084573576
1.1583167946691694805
1.1512878873979128791
1.1509486179487136148
1.1505501733890806104
1.1501570961524441028
1.1498535820773514438
1.1497140764555087156
1.1497587721190860588
1.1499531350385070461
1.1502381595733732755
1.1505643779307390684
1.1509194141027838665
1.1513244658989809643
1.1518035648421971473
1.1523671716986572111
1.1530041432840065774
1.1536848054048591816
1.1543738687204203597
1.1550495906531534906
1.1557041954572715436
1.1563356742479342643
1.1569368763820557788
1.1574883622698304286
1.1579646146658437722
1.1583442212308479036
1.1586154735679374816
1.1587780710816153462
1.1596844125471219566
1.1595389230026664773
1.1593653094717963903
1.1591852388523369299
1.1590184822325384495
1.1588799538592264859
1.1587760689795139069
1.1587081280958457796
1.1586681208062168391
1.1586522909010066318
1.1586477922684246256
1.1586527970258262421
1.1586655872349449492
1.1508169842032058838
1.1504131870357383605
1.1500091274052908208
1.1497040261650384174
1.1495777057094460627
1.1496458121081387649
1.1498628739412262156
1.1501525745300520409
1.1504546739945311629
1.1507611531438042274
1.1511113974139923766
1.1515602117055057096
1.152142402367973828
1.1528495839120782573
1.153632088038582193
1.1544249727574977804
1.1551802454436237433
1.1558777807585809416
1.1565210286036311516
1.1571154946455528556
1.1576540572964726383
1.1581156247980044505
1.1584746447674445502
1.1587144352072404896
1.158838817553850653
1.1597187599141740577
1.1595593658943776916
1.1594055855760214691
1.1592748809836244117
1.1591776569492910909
1.1591151783943112186
1.1590837908306441673
1.1590711352460343342
1.1590705618067647098
1.1590671807206167632
1.1590607556291590008
1.159049497851598165
1.1502799088552726481
1.1498933603227852185
1.1496216038700142192
1.1495394481943612686
1.1496592239135541291
1.1499256197983678263
1.1502503375115158413
1.1505694165966027231
1.1508771526281167397
1.1512191558013284975
1.1516611862892822682
1.1522459194850409592
1.1529642962789117266
1.1537577213723337888
1.1545510785018424649
1.1552894606492634111
1.1559556594170081745
1.1565617102340599587
1.1571232856778028708
1.1576395531385308413
1.1580878935012806075
1.1584372345123921111
1.1586650054562785961
1.1587741974426617464
1.1497390806969787214
1.1495201586203598332
1.149487151808527452
1.1496350972375228849
1.149903455388053386
1.150211295233509956
1.1505108748988690515
1.1508108332251469896
1.1511652702329560061
1.151640172981410748
1.152272196121216119
1.153039819070932559
1.1538723500609868733
1.1546864692404155139
1.1554220974038353908
1.1560656002015918808
1.1566379169045823971
1.1571647689380761825
1.1576509027776011873
1.1580758711952565676
1.1584068806069447444
1.1586232744266555805
1.1587299510995439089
1.1497731105394435325
1.1498134556733401457
1.1498921025634338822
1.1499637205829165154
1.1500233099627710232
1.150115795781208039
1.15032051115447298
1.150713415857623767
1.1513247781100333089
1.1521202942374504374
1.1530152066502370456
1.1539117269124494758
1.1547405554680618689
1.1554798815566627024
1.1561425141917529569
1.15674901293681609
1.1573003142627300566
1.1577744341135030037
1.1581426235761522747
1.1583921209129763863
1.1585351929147116312
1.1500711220540342783
1.150255093745346624
1.1505642044736135166
1.1510459224605926742
1.1517061454727854919
1.1525007633748454161
1.1533522682008638949
1.1541820132915487918
1.1549426968607396926
1.1556276557550824169
1.1562554724076798962
1.1568424745720617963
1.1573823715066033913
1.1578477171582173266
1.1582093483804958289
1.1584578522387287691
1.1586089625801443415
1.1521253563777698048
1.1528795112137457668
1.1536537284268271186
1.1543915197017640129
1.155068337150114921
1.1556911214289666834
1.1562802088720662841
1.1568443236992436152
1.1573684053252639714
1.1578208240629250803
1.158175811275730327
1.1584300135586194092
1.1586023709723325403
1.1524631616969340797
1.1532079095841893945
1.1539337652297447789
1.1546258048392317175
1.15529211435579926
1.1559426578720990442
1.1565692363979773738
1.1571439142144139822
1.1576325637565700877
1.1580168724399326763
1.1583039087660649269
1.1585177516873570447
1.1504475606795212528
1.150024459109350472
1.1495407347646797724
1.1490357269576698673
1.1486132309085039793
1.1484111070624161144
1.1485398050552289018
1.149025045453988092
1.1497953979423463089
1.1507175220363092816
1.151642022738015303
1.1524441274429397808
1.1530421342876073787
1.1534022976498983226
1.1535342770258709688
1.1534791713796272994
1.1532913917942999582
1.1530262980788563709
1.1527414756671636731
1.1524944578712872367
1.1509097632460851823
1.1504738186915666187
1.1500866259811093339
1.1497062634637038592
1.149303212749268166
1.1489182588890369807
1.1486567419313784555
1.1486373157848213111
1.1489177557821907971
1.1494726723499459897
1.1502240564749273144
1.1510693122516038045
1.151908572713829404
1.1526552995175609606
1.1532342280552614344
1.1535959578442982476
1.1537221429030311004
1.1536323419458727191
1.1533874222464819415
1.1530785040696751587
1.1528012175239907844
1.1526101339370677934
1.1522062773317502948
1.1516087790388997991
1.1509884072844431824
1.150458319704920962
1.1500356506044320248
1.1496874535807810602
1.1493609676356220106
1.1490506455735214342
1.1488251774137991923
1.1487754835039223344
1.1489538826765650636
1.1493487537751083671
1.1499187187054564774
1.1506162026345270188
1.1513927163773596263
1.152184213539567903
1.1529024409932018269
1.1534501978445372838
1.1537487295724919711
1.1537749078709678141
1.1535801300616816967
1.153276581067903539
1.1529886828555513389
1.1527895906961458383
1.1526691621837465984
1.1525557630718494817
1.1518327163605639463
1.1514777219261300711
1.1509887274259593681
1.1504947419846074386
1.1500638879949944826
1.1496851591332304388
1.1493194557402099942
1.1489570541127755998
1.1486423169818702483
1.1484899027228261392
1.1485996796333617365
1.1489808189890127199
1.1495467669205519101
1.1501837572825839295
1.150813071580193192
1.1514043806555702698
1.1519438828699479771
1.1524087617635061509
1.1527515161568231417
1.152917695562071021
1.1528845106130185538
1.1526957724637940661
1.1524534888807560495
1.1522616664808287279
1.1521674720983727802
1.1521318638197648454
1.1520685183301224708
1.1519198519232418665
1.1496868997546334512
1.1497154601801524709
1.149689254998891963
1.1495992969490316238
1.1494405650501997584
1.1492148377012776361
1.1489338298271165595
1.1486360320492428055
1.148417514093238001
1.1483899200513580929
1.1486483373547784481
1.149199512448659144
1.1498979591380908971
1.1505189771455133219
1.1508847451266492889
1.1509590700006759878
1.1508464550265524728
1.1507018245317741645
1.150641183381131416
1.1506852654598263008
1.1507719760645724882
1.1508222647455415011
1.1508097400842693947
1.150781803526944147
1.1508074457294694692
1.1509202219420266999
1.1510876220457710861
1.1512488269745995151
1.1513798017336633883
1.1515197965864238938
1.1491469196265242658
1.1494768568333531
1.1496807598602758471
1.1497488549691237125
1.1497144541411956631
1.1496133891529978222
1.1494538904626649956
1.1492211359150150685
1.1489115523357671389
1.1485904631684553667
1.1483852308756683502
1.1484290108488592885
1.1487732250173605664
1.1493101098185076747
1.1498304670932106841
1.1501593660312490197
1.1502602216747754849
1.1502314677167311263
1.1502173968553686123
1.1503116948117291241
1.1505074926133893598
1.1507211135088182274
1.150871031398666533
1.1509542912869354936
1.1510505222743452336
1.1512490597822531146
1.1515654557278480752
1.1519277403384655667
1.1522224415836732625
1.1523868384616833271
1.1524509508747431408
1.1525027686193207721
1.1498562223946469096
1.1502009617164969946
1.1504266015886022156
1.1505244772894502869
1.150538385046304013
1.1505137357712043045
1.1504547533539124515
1.1503309065643658737
1.1501122914406334274
1.1498438915893638423
1.1496607629976822729
1.1497062413884981957
1.150041488352827157
1.1505666500056812573
1.1510607947035669252
1.1513511166683498832
1.1514075282397204791
1.1513520474353766687
1.1513571758158238634
1.1515254602274862528
1.1518455220488530433
1.1522120541662663751
1.1525166966554378778
1.1527354226390593706
1.152936108708945584
1.153198744740064452
1.1535302764196135872
1.1538523563495497459
1.1540637121581631686
1.1541258815188182307
1.1541055600977783158
1.1541203441265537322
1.154260820606621607
1.1526818194826424779
1.1517244254184624275
1.1512518875373429772
1.1514444605587259574
1.1521362607829297442
1.1528279313530958028
1.1516803427111028668
1.1520532839253589952
1.1522927920972243498
1.1523934338758465845
1.1524075414737664502
1.1523865891293241237
1.152334889189369882
1.1522121524248711832
1.1519831597283809455
1.1516883956987449267
1.1514751277764923021
1.1515042175027061511
1.151841173545278485
1.1523825417144677452
1.1528933050055476528
1.1531865555937064194
1.153231419785247347
1.153157695924715842
1.1531462669075260852
1.1533055211607210477
1.1536179413316625109
1.1539686712616856745
1.1542418486236538655
1.1544153978455511389
1.1545666429899203997
1.1547853146240261157
1.1550803507117728408
1.1553657527003045047
1.1555353467112159382
1.1555519310355855112
1.1554876729379512934
1.1554702473349713898
1.1555898651084788309
1.1558425932478924025
1.1560926539905216348
1.155107104030215881
1.1541354242552355203
1.1536831477261078049
1.1539305452298189714
1.154679941787245534
1.1554230278724686443
1.1538732454737290478
1.1542250021168671825
1.1544331262087923484
1.1544980208010739986
1.1544772530562610324
1.1544255626199655396
1.1543504991740887178
1.1542035281494542609
1.1539449509343759903
1.1536138910033648664
1.1533596999183526322
1.1533587297820153683
1.1536738091367881864
1.154197978410367309
1.1546922772983629901
1.1549529745836597527
1.1549602546016504157
1.1548449582219213472
1.1547962856531566178
1.1549266650805336543
1.1552153796890098914
1.1555428610234470543
1.1557880920647307654
1.1559308467141757859
1.1560528235548623854
1.1562475903383662157
1.156524046107930026
1.1567901337684431962
1.1569341177373491103
1.1569207379054951002
1.1568247128966093751
1.1567805414398801833
1.1568809151891137343
1.1571190172621153014
1.1573909691020300983
1.1583801656124168566
1.1582362381054087663
1.158128044602983131
1.1580659020206427456
1.1580540031250461386
1.1580954685452380382
1.1581897049758269613
1.1583232029313768052
1.1584924237135112435
1.1586752837795857296
1.1588539790767817816
1.1493746041018353399
1.1495790091910023101
1.1498394481847276083
1.150094438354999582
1.1502935756603611672
1.1504033028499911495
1.1503918299359163768
1.1502337620273905827
1.1499316511815940167
1.1495403758595599264
1.1491669312861074737
1.1489295126295602234
1.1489028182434206649
1.1490793429772390155
1.1493849467957959476
1.1497437693861494168
1.1501369072542535488
1.1506106493986649753
1.1512288193346076337
1.1520095336542752751
1.1528954369928556822
1.1537737738273818877
1.1545350342633715623
1.1551316373482960476
1.155594924257260292
1.156001865790310168
1.1564232723043366136
1.1568883148793773774
1.1573699588161281415
1.157806351790277466
1.1581458296806883546
1.1583716655659141992
1.1585034220930108262
1.1585722935802393874
1.1585972543504599042
1.1585789575661740169
1.1590157727453525016
1.1590906452789420111
1.159152536739978645
1.159185032724576514
1.1591747637005553884
1.1591149578916055685
1.1590066889019816632
1.1588585226970264941
1.1586845273661179334
1.1585025132141320015
1.1583306608388137526
1.158186402926323133
1.1580813632348765374
1.158026102669870161
1.1580228393063660697
1.1580736007586664993
1.1581757242873427227
1.1583140345067131083
1.1584845896039051016
1.1586620491576069547
1.1588312281563493134
1.1494812855327238843
1.149644156186660604
1.1498740926662605055
1.1501114865557766631
1.150306148535472861
1.1504214561768422165
1.1504325774329131615
1.1503082678835119257
1.1500470825113309203
1.1496895916672857929
1.1493320140138774121
1.1490915086594810646
1.1490470008495323739
1.1492031067425085844
1.1494972701254122516
1.1498590062163229764
1.1502666203787033083
1.150755484052933042
1.151379386361067958
1.1521522403718098548
1.1530192094732141239
1.153878962664838026
1.1546341043234338297
1.1552402169583684266
1.1557252890226887843
1.1561599742416692749
1.1566058583474634336
1.1570837367213180347
1.1575658385363079006
1.1579953841600996167
1.1583260092876561664
1.158546543262423123
1.1586749596202194912
1.1587332482672552114
1.1587309430164944857
1.1586648852407921417
1.1589599172892255385
1.1590126053297435949
1.159058723919088818
1.1590841199063097733
1.1590753159410418505
1.159022936064668885
1.1589244938855918221
1.1587856826771469887
1.1586191707694806219
1.1584423776579637622
1.1582740137044429396
1.1581330936114349051
1.1580331705848669888
1.157986000206872701
1.1579924505321554928
1.1580525608914726821
1.1581601648331871779
1.1582985005505397336
1.1584632323561712131
1.1586267826878131615
1.1587778859711395096
1.1497844692353440532
1.1500191956382810332
1.1502592941897473722
1.150450353965503103
1.1505575285369176175
1.1505631048196780508
1.1504474343880819465
1.1502133439625450428
1.1498913377010644421
1.1495656903038706798
1.1493434296525879557
1.1492989726191644717
1.1494448679219999576
1.1497338569315138646
1.1501024600646987395
1.1505239442974364295
1.1510190109727043151
1.151625755807121898
1.1523563108612682182
1.1531669693646589003
1.1539751152305199877
1.154705974611081265
1.1553234603860120799
1.1558466368869571017
1.1563268709044620675
1.1568058156833227468
1.1572907116105239922
1.1577534156253668218
1.1581504198881538148
1.1584505378648328744
1.158650018663492931
1.1587638998935883006
1.1588063697103647698
1.158778256325871947
1.1589294896392103862
1.1589549641933849511
1.1589684745319455139
1.1589576315928424854
1.1589119171422139765
1.158825941987919439
1.1587016861380206034
1.1585493377306590457
1.1583847824694581963
1.1582264769888914735
1.1580939813594268717
1.1580012356160389597
1.157961108619345092
1.1579742403726633881
1.158039895843042455
1.1581490068519055825
1.1582826393018685884
1.1584350782625227883
1.1585773975283855108
1.1587023530823989947
1.1500740235555502178
1.1503411781040711048
1.1506015589208260508
1.1507971593634740426
1.1508923951504115291
1.150867732896696527
1.150723909784262089
1.1504610747817580751
1.1501202824109586498
1.1497797364167594569
1.149537570976313372
1.149477165630574671
1.1496246484961352152
1.1499488622375371172
1.1503911697662578817
1.1509077511635952273
1.151489485262422674
1.1521465549052949395
1.1528750413023240995
1.1536448868283741831
1.1543992145945278782
1.1550890641987530127
1.1556956600850938344
1.156230893591955633
1.1567255094693049688
1.1571995530954697351
1.1576494068079712374
1.1580536115625115201
1.1583850594948816859
1.1586286509997718586
1.1587864340109954586
1.1588684360119598793
1.1588793009100899489
1.158815481583083784
1.1588297557341136201
1.1588329095167875238
1.1588329904774992141
1.1588191499408373453
1.1587808074935628255
1.1587105891556066517
1.1586072223751215926
1.1584772131615546087
1.1583342724551939362
1.1581952320288171343
1.158078800666872521
1.1579989753029664712
1.1579683683943458039
1.1579876028661428844
1.1580559346951531108
1.1581620393781026923
1.1582866788724373031
1.1584228554277657963
1.1585402080816924464
1.1586349451400244082
1.1505842294550567839
1.1508800847050275618
1.1511057320059441267
1.1512237870474677504
1.1512172259649238182
1.1510841363618111721
1.1508308846911436962
1.1504987262366692669
1.1501518538076040965
1.1498753793105267462
1.1497498009884024039
1.1498110952462232692
1.1500453617081360935
1.150412180458947109
1.1508695980279746163
1.151395581007458313
1.1519884040296581862
1.1526443883017798431
1.1533501204875109547
1.1540795899745794895
1.1547965191671372143
1.1554791209878543246
1.1561177028021782931
1.1567095114408949552
1.1572491220521301525
1.1577221552396081972
1.1581170333491970226
1.1584259252535902274
1.1586481101749952494
1.1587890476742626067
1.1588567165982210927
1.158850859480940354
1.1586908997181182279
1.158675568633789732
1.158656976934626881
1.1586246417280372523
1.1585705374568187054
1.1584908703488787651
1.1583892507859525622
1.1582758727167998813
1.1581658530053549061
1.1580763682306856044
1.1580193388903008422
1.1580061074906669027
1.158035669506003229