/*--------------------------------*- C++ -*----------------------------------*\
  =========                 |
  \\      /  F ield         | OpenFOAM: The Open Source CFD Toolbox
   \\    /   O peration     | Website:  https://openfoam.org
    \\  /    A nd           | Version:  12
     \\/     M anipulation  |
\*---------------------------------------------------------------------------*/
FoamFile
{
    format      ascii;
    class       volScalarField;
    location    "0.0058";
    object      alphat;
}
// * * * * * * * * * * * * * * * * * * * * * * * * * * * * * * * * * * * * * //

dimensions      [1 -1 -1 0 0 0 0];

internalField   nonuniform List<scalar> 
75962
(
5.5234493283314460321e-07
7.0400389742633498138e-07
7.7518187153340872278e-07
8.9034966704761599516e-07
1.0996897143175949942e-06
1.2087411079825451973e-06
1.2353244580963644485e-06
1.2568183019806430557e-06
1.318471913123426919e-06
1.4513166998193583609e-06
1.5549564402645136711e-06
1.6276133673835271867e-06
1.694547847618596488e-06
1.7673822023161415296e-06
1.8702694410510798074e-06
2.0057536363700516266e-06
2.153383090782071306e-06
2.2994284972102525213e-06
2.4273476914884283431e-06
2.5364313134851694148e-06
2.6349483011960302622e-06
2.722777447324154463e-06
2.7899460840822342474e-06
2.8329533076100000397e-06
2.8639528439000234961e-06
2.9102020307980490899e-06
2.9928607702451384958e-06
3.1038208934142568344e-06
3.2015347902407940632e-06
3.2603851705994006845e-06
3.299986954892541976e-06
3.3664595063324830288e-06
3.5109748171632896904e-06
3.7165643445016526793e-06
3.9080610030042961528e-06
4.0361048937080704736e-06
4.0962816296465921526e-06
4.1177447040634816675e-06
4.1350780992165302944e-06
4.1700348272394648026e-06
4.2300041465797912505e-06
4.3141959623516631868e-06
4.4156363370948597619e-06
4.5204087111537363737e-06
4.611663169439287325e-06
4.6766353454248421153e-06
4.7125495010461896384e-06
4.7323198528641540299e-06
4.7624937427833285454e-06
4.8402936194992690576e-06
5.0455845093338453822e-06
5.2792675802341191988e-06
5.4510959559372631708e-06
5.5485535868665330177e-06
5.5910749165805976639e-06
5.6083152652666670932e-06
5.6182532001187647332e-06
5.6265598639437245491e-06
5.6362335119257464912e-06
5.653768864807831102e-06
5.6916835048125150322e-06
5.7986899266728763512e-06
5.9853458588041174017e-06
6.130996005490861577e-06
6.2071035008380542181e-06
6.2353805465216960584e-06
6.269739083454275503e-06
6.3669399830796929491e-06
6.657129031611621455e-06
6.9721309258397433524e-06
7.1571486593599517939e-06
7.234662784929763555e-06
7.2526965623395916582e-06
7.2499312455669060021e-06
7.2412686753164875092e-06
7.2308801617872917294e-06
7.2257260193277227212e-06
7.2264780153844061572e-06
7.2610941315942289975e-06
7.4030622509789019688e-06
7.5433928085759712007e-06
7.596828602035040949e-06
7.5980235586339864206e-06
7.5779112468858518707e-06
7.5381687830929678358e-06
7.5236686399399117152e-06
7.5260868597027820817e-06
7.5734352626508164922e-06
7.7419374364802662013e-06
7.9557769794881583755e-06
8.1236213258363719676e-06
8.2301456837515520038e-06
8.2772302666769559534e-06
8.2952391549577047359e-06
8.3259553949254861625e-06
8.4144753699160224915e-06
8.6893736682534686386e-06
9.030651976468860752e-06
9.2361057406704473661e-06
9.3115735584175109396e-06
9.3127108498657325475e-06
9.2866246714445902047e-06
9.235556804796096346e-06
9.2194916969736143348e-06
9.2353272904947384016e-06
9.3787044969448905477e-06
9.6842447012299150372e-06
9.8657540342516953822e-06
9.9312248341461317904e-06
9.937513263724065445e-06
9.9329246935301129351e-06
9.9344831639070464387e-06
9.9593723213186044144e-06
9.9814870495303179991e-06
9.9763210154190816101e-06
9.9368969462070870957e-06
9.8151450612501264309e-06
9.7230887493825699246e-06
9.6896807705872903694e-06
9.6825931978691566466e-06
9.7154089394707797515e-06
9.8024586975743511791e-06
9.8562073409809138275e-06
9.8800912382911890115e-06
9.8865013267796346012e-06
9.8861131043024366987e-06
9.8833748148407212918e-06
9.8773220383040322802e-06
9.8589017933766550148e-06
9.8192632205198691604e-06
9.7823147980389787878e-06
9.7539752174662614712e-06
9.7344231831683870296e-06
9.7217658644544531661e-06
9.7139326406307313302e-06
9.7141784631328982049e-06
9.73449112878949118e-06
9.7743109394967879315e-06
9.8230528273279585599e-06
9.8807218244545056801e-06
9.941470845940760144e-06
9.9970207742322889739e-06
1.0040448487520562583e-05
1.0069019365925693842e-05
1.0084352475577796788e-05
1.0090913827794229437e-05
1.0094701563917244299e-05
1.010141403573081553e-05
1.012071359520012489e-05
1.0172036653805094708e-05
1.0230389809696132446e-05
1.0283369504608803237e-05
1.0328576537593187764e-05
1.0367173086046122234e-05
1.0402567495824127986e-05
1.04382332213546963e-05
1.0476743795949145885e-05
1.0518054635873689087e-05
1.0559585284095858785e-05
1.0597359062536245024e-05
1.0627204452894108635e-05
1.0647120709153437202e-05
1.0657460396424104252e-05
1.066188955098727189e-05
1.0666571875213170468e-05
1.0679071844005546261e-05
1.0704170811232892595e-05
1.07444194234576746e-05
1.0796913480784830767e-05
1.085678980254311671e-05
1.0915929024479539445e-05
1.0968993831529700201e-05
1.1011682656784513168e-05
1.1042982495461883368e-05
1.106383668922770475e-05
1.1076894188916447588e-05
1.1086269106781980402e-05
1.1095403603979716575e-05
1.1108075614103363698e-05
1.1126310141185971945e-05
1.1151236313258258619e-05
1.1181677131029366814e-05
1.1216007395651706824e-05
1.1250927994893950782e-05
1.1283334649536856938e-05
1.1311194210556318719e-05
1.1333161436443572149e-05
1.1349866302085350752e-05
1.1509133165192048182e-05
1.1493734621303206323e-05
1.1479250674852879111e-05
1.1465782856195560474e-05
1.1452775998396904633e-05
1.1439692468519479509e-05
1.1425894495456522161e-05
1.1411502326822944281e-05
1.1396688643377940245e-05
1.1382078819035403621e-05
1.1367887305813323621e-05
1.135448057489775617e-05
1.1341567390894849275e-05
1.1329001603548654863e-05
1.1316311364594541433e-05
1.1303697257537946794e-05
1.1291129608430769643e-05
1.1278980424975931942e-05
1.1266920290369992656e-05
1.1255080700784545535e-05
1.1243110691397426067e-05
1.1231355057686483433e-05
1.1219568671986989553e-05
1.1208062502896177826e-05
1.1196525043557144997e-05
1.1185264927382058251e-05
1.1173950664724644996e-05
1.1162809843215641358e-05
1.1151288568124877537e-05
1.1139359512541991085e-05
1.1126229702174424249e-05
1.1111885424456224578e-05
1.1095993521439558266e-05
1.1079443192771124547e-05
1.1062801318528038753e-05
1.1047329749034475414e-05
1.1033129605889675982e-05
1.1020523541394957421e-05
1.1008590659006153734e-05
1.0997164249106853784e-05
1.0985334862751855377e-05
1.0973504368535632946e-05
1.0961472737449853791e-05
1.0949922465275753738e-05
1.0938533241089838169e-05
1.0927662485059022707e-05
1.0916477478386963024e-05
1.0905060168857140092e-05
1.0892647262550972308e-05
1.0879755394085066013e-05
1.086616792361724396e-05
1.0852780090584817881e-05
1.0839419652437007658e-05
1.0826629151597005126e-05
1.0813697616712660639e-05
1.0800713974571742013e-05
1.0786917100531924615e-05
1.0772780486118628819e-05
1.0758101158732518045e-05
1.0743728485257394715e-05
1.0729590411481726897e-05
1.0716299940240832213e-05
1.0703406178155851574e-05
1.0691002803364094473e-05
1.0678386672618539084e-05
1.066575106136641528e-05
1.0652745962087116656e-05
1.0639852911403443008e-05
1.0626732535828910898e-05
1.0613679960862486916e-05
1.0600153656896505795e-05
1.0586504648405864427e-05
1.0572350974882948862e-05
1.0558296830910694173e-05
1.0544080069406562257e-05
1.0530302708958804746e-05
1.0516431342263330044e-05
1.0502768062601807621e-05
1.0488529969432220808e-05
1.0474099918714820562e-05
1.0459071364440320167e-05
1.044431389271333059e-05
1.0429769421185437116e-05
1.0416231494365231719e-05
1.0403235801403429447e-05
1.0390981220997015563e-05
1.0378601004646025122e-05
1.0366146196276283535e-05
1.0352918876823715701e-05
1.0339267012652879051e-05
1.0324902068043531047e-05
1.0310526033993082281e-05
1.0296161603295902849e-05
1.028253299463193598e-05
1.0269490178058586987e-05
1.025734783293012085e-05
1.0245657557109708654e-05
1.0234484225548307155e-05
1.022331576398053521e-05
1.02121627491178423e-05
1.0200596322285217387e-05
1.0188711785157525511e-05
1.0176291361401756816e-05
1.0163533775719334673e-05
1.0150321847717865703e-05
1.0136742363759167161e-05
1.0122595428445983396e-05
1.0108075027604590925e-05
1.0093168848161473974e-05
1.0078471532353684335e-05
1.006404947672802823e-05
1.0050511065265485924e-05
1.003761739816137592e-05
1.0025670917910794894e-05
1.0014079275583082941e-05
1.000290085470705091e-05
9.9914762022005611345e-06
9.9799347997086748483e-06
9.96785268117125532e-06
9.9554969783160920086e-06
9.9426570737003701833e-06
9.929593148331103381e-06
9.9162400045948262222e-06
9.902704938759729247e-06
9.8889497982018148119e-06
9.8750993473721930245e-06
9.861141718768001645e-06
9.847329088386416637e-06
9.83341818648153088e-06
9.8196820653857420149e-06
9.805677550304815892e-06
9.7918476193011854823e-06
9.7778693261383966303e-06
9.7641811714260686171e-06
9.7507262146749244222e-06
9.7376407349298434526e-06
9.7249124182730027394e-06
9.712337212686550749e-06
9.6997956726648787694e-06
9.6871494522500468748e-06
9.6743499799388377593e-06
9.6615621596254970012e-06
9.648892761787068476e-06
9.6363705796783944834e-06
9.6242076075575605694e-06
9.6120620906195149911e-06
9.6002875791524313671e-06
9.5883951056887486373e-06
9.5767138383284960491e-06
9.5648450517884533556e-06
9.5532331452756902995e-06
9.5414725456746099421e-06
9.5300676954864593337e-06
9.5183078233785501358e-06
9.5067602579678845527e-06
9.4947652931755792535e-06
9.4829350242543541212e-06
9.4707383989722739357e-06
9.4588358434733970487e-06
9.4464764309424481862e-06
9.4346560346400249028e-06
9.422251597227488537e-06
9.4106004720528330104e-06
9.3985851456602925746e-06
9.3875087939378369298e-06
9.3763414385623647466e-06
9.3661794202445524846e-06
9.3556764640980476835e-06
9.3458881748067618698e-06
9.3352921690760094309e-06
9.3248905955867449606e-06
9.3133001817518569016e-06
9.3016285815983028198e-06
9.288697401136351866e-06
9.2759605803461208962e-06
9.2624166188808841626e-06
9.2497446541608084863e-06
9.2368447075409405319e-06
9.2252778850214228761e-06
9.2135493925675141766e-06
9.2030151657506775243e-06
9.1917848396099013962e-06
9.1813280895223442702e-06
9.1696960350229679044e-06
9.1587513533987343175e-06
9.1466761943450023044e-06
9.135572266843263882e-06
9.1237443884209314023e-06
9.1131598791680751493e-06
9.1020268847448883542e-06
9.0922140560679135288e-06
9.0817139180562672304e-06
9.0721154341277332136e-06
9.0616187833373239237e-06
9.0517969150952135141e-06
9.0407864866416242923e-06
9.0304350511725145224e-06
9.0188230324246197961e-06
9.0079363818108234744e-06
8.9958833915335495695e-06
8.9846426434975709978e-06
8.9722563551636931605e-06
8.9608104727327602741e-06
8.9482977545561114897e-06
8.9370636357954442606e-06
8.9249792440104386033e-06
8.9144359599090012842e-06
8.9031758019663201093e-06
8.8934191043388641099e-06
8.8828391317157162274e-06
8.8735634681355770307e-06
8.8632401534339480819e-06
8.8540251260345828084e-06
8.8436351088291141772e-06
8.8342838377925102646e-06
8.8238545446130703604e-06
8.8145653517253012366e-06
8.8042860257197062661e-06
8.7952292180029646007e-06
8.7852283467752649988e-06
8.7764228156317110471e-06
8.7667098014486341133e-06
8.758130364420743796e-06
8.7485152667270908288e-06
8.7399503307680642705e-06
8.7302428963420806464e-06
8.7214501219091535651e-06
8.711469822452425234e-06
8.702317914629892733e-06
8.6917227180812852761e-06
8.6819430303614893813e-06
8.6706052010234375721e-06
8.6603979829442145243e-06
8.6487787089740281177e-06
8.6386922079039444336e-06
8.6274453421477658734e-06
8.6177140533476313583e-06
8.6068287750882407162e-06
8.5972747653012223691e-06
8.5864689427999769505e-06
8.5767762053508933117e-06
8.5658276192244278701e-06
8.5560632547498291647e-06
8.5451505861935021866e-06
8.5355881274702209016e-06
8.524994538715672534e-06
8.5158856293959967214e-06
8.5056174766638525519e-06
8.4968743857371359894e-06
8.4869858550324458644e-06
8.4784242066393683524e-06
8.4686782736921650193e-06
8.4599792955125119613e-06
8.4500366898223266775e-06
5.5219050465521921146e-07
7.1710716874196215401e-07
7.9925737666280156947e-07
9.01662932048061586e-07
1.1168544897642630351e-06
1.2745542219231556924e-06
1.3298788090366007851e-06
1.3531286596138857521e-06
1.391709584441537509e-06
1.4800220021890035407e-06
1.625554726164689713e-06
1.7546201616517360278e-06
1.8369622206052693216e-06
1.8939991721344435642e-06
1.9872882352527739074e-06
2.1414336426017095558e-06
2.3048676971680875231e-06
2.4156726898863851896e-06
2.4826345475991477165e-06
2.5680494389517382859e-06
2.6969353465007265576e-06
2.8290193763715526134e-06
2.9182286898366085742e-06
2.9604972144750246784e-06
2.9911820194610060917e-06
3.053773463826906038e-06
3.1637685719262992609e-06
3.2747154100125572206e-06
3.3546129226485804386e-06
3.3991646909433863579e-06
3.4329809277026463884e-06
3.4944255150755344482e-06
3.6427762157038029518e-06
3.9140278697239619271e-06
4.1599455737107841099e-06
4.3150612725313121129e-06
4.3773830695803269436e-06
4.3874605179716693492e-06
4.3877028684690785507e-06
4.3951048335078272982e-06
4.4216505753279164369e-06
4.4970655860207785621e-06
4.6165990867527194813e-06
4.7387939712906141417e-06
4.8458646157319090151e-06
4.9226775588819269072e-06
4.9640932866190371273e-06
4.980223570529319289e-06
4.9955435938617475186e-06
5.0371432976147361281e-06
5.1721637351294118734e-06
5.4481538106953578693e-06
5.6716643993125648738e-06
5.8062342957345571248e-06
5.8637949351056474826e-06
5.8778763543551182104e-06
5.8778590036962184356e-06
5.878271155553551895e-06
5.8842387957130727185e-06
5.9015354614600396303e-06
5.9500304162852679944e-06
6.0952026483868221285e-06
6.3093941993722675108e-06
6.4762546331200637544e-06
6.5691064984994563527e-06
6.6022297675469767751e-06
6.6265566444230066282e-06
6.6892983358120615509e-06
6.8952360185477860164e-06
7.208412066267445388e-06
7.4162605665603613554e-06
7.5172698751268805556e-06
7.5489585385781374726e-06
7.5519972976300211035e-06
7.5490464120017976868e-06
7.5462610198865718238e-06
7.5435806009951756294e-06
7.5473379679948079176e-06
7.5862102773721627779e-06
7.7312120091879790875e-06
7.8776487468324616302e-06
7.9439114948190417447e-06
7.9529471687160220616e-06
7.941093199677192336e-06
7.9106430297564887621e-06
7.8924324577126523593e-06
7.8890354511173616447e-06
7.9129138612714785769e-06
8.0337062766407255277e-06
8.3075498646551834946e-06
8.534163476961998643e-06
8.677583025638047347e-06
8.7429132292948591524e-06
8.7682945204071145273e-06
8.8042416778952212978e-06
8.9017665432118229515e-06
9.1713420853812934234e-06
9.4600567973034861306e-06
9.6342396632561033812e-06
9.6949975833814347649e-06
9.691594862097293472e-06
9.6633255682403344593e-06
9.6191592632217874078e-06
9.6081657736868988353e-06
9.6380995871687031055e-06
9.8396414125791728294e-06
1.0190495260322148918e-05
1.0389788860587507839e-05
1.0461412629684031071e-05
1.0470288417526482815e-05
1.0470453239484854631e-05
1.0486799977894370586e-05
1.0554277831882531729e-05
1.0600341011805916036e-05
1.0599273124177442199e-05
1.0562709173844158782e-05
1.0433381444023809198e-05
1.0322729761655617195e-05
1.0283020265683716295e-05
1.0275880314811708819e-05
1.031198158890455774e-05
1.0403803746577696014e-05
1.0455845615777843797e-05
1.0474832399285426772e-05
1.0476658833260365283e-05
1.047310843365041472e-05
1.0467150712827807268e-05
1.0451989654278152913e-05
1.0411084403244842927e-05
1.0365241999905371365e-05
1.0330452324085324893e-05
1.0305662443215645791e-05
1.0288432421874651529e-05
1.0276271888613758236e-05
1.0267905442818532434e-05
1.0265570642955359606e-05
1.0276763230005908306e-05
1.0316972202065938368e-05
1.0376151407573065523e-05
1.0439978584589337807e-05
1.049804009091182722e-05
1.0541466130808503488e-05
1.0566997608660751355e-05
1.0578118204256251142e-05
1.0582885218673473662e-05
1.0590537262621227871e-05
1.060952735552333088e-05
1.0647394107947141887e-05
1.0694071208832234838e-05
1.0743158297673194396e-05
1.0789907132663149566e-05
1.0831741347635330769e-05
1.0869133485464069937e-05
1.0905113596791849362e-05
1.094267021651317557e-05
1.09841139398844509e-05
1.102965333441630733e-05
1.1078135716297334227e-05
1.1126189051579810646e-05
1.116900025769867227e-05
1.1201904415480886737e-05
1.1222318204766542447e-05
1.1230556641827367639e-05
1.1230508204332148716e-05
1.1229048741239777313e-05
1.1233839774150524942e-05
1.1253308697459108798e-05
1.1290917806381322561e-05
1.134560968385455537e-05
1.1412305848342788327e-05
1.1483398053859100266e-05
1.154990387763370911e-05
1.1605854421119105396e-05
1.1645441420367963218e-05
1.1666933934214269384e-05
1.1673706404566831562e-05
1.1672533830514724719e-05
1.1671043523693211928e-05
1.1675239379581223267e-05
1.1688966761905993471e-05
1.1712584313247403553e-05
1.1745068362475020107e-05
1.1782502346501722275e-05
1.1821474530853185751e-05
1.1857835862308243826e-05
1.188931949142789088e-05
1.1914791466407159424e-05
1.1934407438290760699e-05
1.1949653230608070639e-05
1.2132826616092703625e-05
1.2115387025818767376e-05
1.2098490793667039539e-05
1.2082445611847389655e-05
1.2067414871494214204e-05
1.2052990228398208154e-05
1.2038679626235559048e-05
1.2023833480137324667e-05
1.200838053941205348e-05
1.199250939251748052e-05
1.1976900626812028456e-05
1.1961939544820768218e-05
1.1947962334358513208e-05
1.1934719440637433434e-05
1.1921976172059994408e-05
1.190924405664982926e-05
1.1896432423148886072e-05
1.1883436160026355748e-05
1.1870540563095165814e-05
1.1857720540905102521e-05
1.1845158149886957229e-05
1.1832664391643754693e-05
1.1820379016482151959e-05
1.1808115901447994506e-05
1.1796051286888539384e-05
1.1784021181693261557e-05
1.1772196214216780033e-05
1.1760321655422497673e-05
1.1748442925641315536e-05
1.1736200940084023963e-05
1.172348808750174521e-05
1.1709739975656695057e-05
1.169483963458049944e-05
1.1678667304507194509e-05
1.1661904706293046315e-05
1.1645193666532075192e-05
1.1629383242171003221e-05
1.1614621227266572879e-05
1.1600947558502110231e-05
1.1587817615361386913e-05
1.1574938637103277241e-05
1.1561921058973160544e-05
1.1548903938720826912e-05
1.1535921659849179182e-05
1.1523360520723513952e-05
1.1511220052206955881e-05
1.1499447973739261372e-05
1.1487596780197111869e-05
1.1475458271085678657e-05
1.146275632279699482e-05
1.1449612972178555896e-05
1.1436127561060761062e-05
1.1422624007000954676e-05
1.1409191699239431254e-05
1.1395849251464921405e-05
1.138225366819372355e-05
1.1368130470107582757e-05
1.1353264166261847561e-05
1.1337874915096373782e-05
1.1322291008748744506e-05
1.1307032419137367021e-05
1.1292346408113907368e-05
1.1278351719645529072e-05
1.1264803738666615698e-05
1.1251417978108048542e-05
1.1237912540770389778e-05
1.1224242481253122542e-05
1.1210488925836727968e-05
1.1196792470318222757e-05
1.1183187148278954522e-05
1.1169617237572357441e-05
1.1155888017832154218e-05
1.1141867790637794046e-05
1.1127455243901078876e-05
1.1112761094280006476e-05
1.1097946438737594783e-05
1.1083213303645497245e-05
1.1068535615698244103e-05
1.1053759393851660632e-05
1.1038589837382176977e-05
1.1022995451044746926e-05
1.1007087670016094886e-05
1.0991329866368922485e-05
1.0976087831814163243e-05
1.0961651290004594019e-05
1.0948003988902032176e-05
1.0934879100044094953e-05
1.0921905400936436945e-05
1.090867510629309496e-05
1.0894976691663961303e-05
1.088073859167049919e-05
1.0866151115065922936e-05
1.0851455512183738147e-05
1.0837026842904839903e-05
1.0823067244647199191e-05
1.0809743214318737948e-05
1.0796933770886022103e-05
1.0784532721827476908e-05
1.0772277923457076592e-05
1.0760115751391211242e-05
1.0747807903542201259e-05
1.0735369566744794044e-05
1.0722569203866598385e-05
1.07094990333914062e-05
1.0695970030769007321e-05
1.0682145407330860217e-05
1.06677944937668096e-05
1.0653061926536638434e-05
1.0637866689747469318e-05
1.0622581030934949629e-05
1.0607469157352861547e-05
1.0592917198794422635e-05
1.057904084447098525e-05
1.0565878223666064589e-05
1.0553280811483695825e-05
1.0541113474061906388e-05
1.0529128969314401759e-05
1.0517189398704291536e-05
1.0505014165299459008e-05
1.0492619532032275602e-05
1.0479746744530818564e-05
1.0466611508311512998e-05
1.0453000831853482958e-05
1.0439236999068336075e-05
1.0425037851584779169e-05
1.0410735154824062636e-05
1.0396070726911140831e-05
1.0381424796987185548e-05
1.0366710270007131571e-05
1.035207644552361751e-05
1.0337478223693319349e-05
1.0322898721281775465e-05
1.0308339510565486409e-05
1.0293996279059870603e-05
1.0279851109239015788e-05
1.0266233374611351327e-05
1.0252741200496738721e-05
1.0239711885308927527e-05
1.0226462585953534167e-05
1.0213332496489736071e-05
1.0199808709238928817e-05
1.0186364457996458587e-05
1.0172734654354469475e-05
1.0159458536679999142e-05
1.0146092850374237201e-05
1.0133214817629057158e-05
1.0120016171640140905e-05
1.0107243541927220555e-05
1.0093983862761036607e-05
1.008114971419875337e-05
1.0067925529086818712e-05
1.0055282622387398098e-05
1.0042406370690960991e-05
1.0030266957043175614e-05
1.0017824974853180075e-05
1.000598719380189543e-05
9.9936280408286976332e-06
9.9816660873783264038e-06
9.9689874166167838322e-06
9.956662541358241852e-06
9.9434588095868698906e-06
9.9308556289038151221e-06
9.9174107096558380248e-06
9.9049216565057655111e-06
9.8919332601851529883e-06
9.8802234673077774381e-06
9.8683787778788701874e-06
9.8579587218546367323e-06
9.8471208585123958358e-06
9.837265040567945811e-06
9.8263101927823509341e-06
9.8155888450223758261e-06
9.8032719856275634643e-06
9.7908764422002170149e-06
9.7768858779948883246e-06
9.7632613279052395485e-06
9.7486778688018201446e-06
9.7353076508065847943e-06
9.7217341038028916934e-06
9.7098630203886425303e-06
9.6977849389749229853e-06
9.6871678815523104116e-06
9.6756084086996443021e-06
9.6649804022315759043e-06
9.6528441057081571766e-06
9.641481370738708346e-06
9.6287582112012365642e-06
9.6172091067158408929e-06
9.6047705968723062823e-06
9.5939088222121594993e-06
9.5823159414733167686e-06
9.5722359420989975654e-06
9.5612058589721472378e-06
9.5512869574310994809e-06
9.5400835447546275395e-06
9.5296650109774390939e-06
9.5177599973177138041e-06
9.5066719760957409357e-06
9.4940550217808251189e-06
9.4823501725455977768e-06
9.4691750313658746776e-06
9.4569955106438367945e-06
9.4433940196839669145e-06
9.4310070219791454726e-06
9.4173959045750042925e-06
9.4053576393092609931e-06
9.3923889830859412482e-06
9.3813091744599989261e-06
9.3693879374937416441e-06
9.35929875100477444e-06
9.3481673917415651713e-06
9.3385129131122523798e-06
9.3275411612958683696e-06
9.3177741772225974995e-06
9.306509287946764387e-06
9.2964693606538980844e-06
9.2850921579569266573e-06
9.2751359383465187031e-06
9.2639493748366281002e-06
9.2542950455906879375e-06
9.2434851510275596142e-06
9.2341561096542681112e-06
9.2236874255186500322e-06
9.2147036688798311394e-06
9.2044815194014767916e-06
9.195615100722798443e-06
9.1853753719359738315e-06
9.1763240817190819802e-06
9.1657636556186834097e-06
9.1562325258844623081e-06
9.1449459520666243631e-06
9.1346923279189331114e-06
9.1225858273878039309e-06
9.1118284385036015107e-06
9.0994518527614522504e-06
9.0887909243880730378e-06
9.0767132360261182665e-06
9.0663767135455720621e-06
9.0546369232456004752e-06
9.0444490231431475327e-06
9.0327885912146228543e-06
9.0225422306043915661e-06
9.0108030307336147726e-06
9.0005141223059498186e-06
8.9888624903941859629e-06
8.9788558273465005093e-06
8.967606658975183661e-06
8.9581044859007050927e-06
8.9472446697746825777e-06
8.9380989505559227853e-06
8.9275251475741074187e-06
8.9184667156636900141e-06
8.9079108904647214397e-06
8.8985679596973344275e-06
8.8876870746623924294e-06
5.6893342013739082656e-07
7.7656643291759936697e-07
8.618324231749650679e-07
9.4446892746606522644e-07
1.154633128392292961e-06
1.3377820544595490883e-06
1.3907275050720721428e-06
1.4098207586643391149e-06
1.4462031319232989949e-06
1.5460619060775979528e-06
1.7415947544850098014e-06
1.8892844788857123681e-06
1.9689071192118327735e-06
2.0073888617578634348e-06
2.0526304022508814247e-06
2.1520779048366868683e-06
2.3731085644793968566e-06
2.5789114159210632036e-06
2.7161457003672183213e-06
2.8201822443971162358e-06
2.9275880044418083993e-06
3.0259617695776447429e-06
3.0894450495622543891e-06
3.1200168489597754774e-06
3.1448352397747505201e-06
3.1950041084481790902e-06
3.3188652000718886103e-06
3.4503017161033597279e-06
3.5330512216936815272e-06
3.574967562472035725e-06
3.6110822410874590001e-06
3.6827320242649832787e-06
3.8519673488450985985e-06
4.0931215793806306305e-06
4.3170001598701194308e-06
4.4767052291945703176e-06
4.5601556616620188977e-06
4.5920435582126756461e-06
4.607461806468516878e-06
4.63435120825597937e-06
4.6876424924321809853e-06
4.7715048994651964841e-06
4.8794507345898524068e-06
4.9949123673743647342e-06
5.0956672381294428677e-06
5.1628308710436931404e-06
5.1934086895130010349e-06
5.2054551996876350861e-06
5.2274928596539754652e-06
5.2969277503455031796e-06
5.5324082963776600015e-06
5.8800930039496204571e-06
6.107850386381823626e-06
6.2068945751708610913e-06
6.2254959923300267079e-06
6.2184706102247091117e-06
6.2034135526238853004e-06
6.1959308539997227577e-06
6.196856963548533208e-06
6.216674192817530472e-06
6.3001652645883758058e-06
6.4991537621600555053e-06
6.6757197342898437684e-06
6.7939440902436904599e-06
6.8508587804044505015e-06
6.8697261619113159553e-06
6.8899454483087693401e-06
6.9494012235996025536e-06
7.1566569619242608217e-06
7.4672562883364722961e-06
7.6649430338187435444e-06
7.7554118683326719386e-06
7.781250254085656743e-06
7.7838822345619977384e-06
7.7847158265857594958e-06
7.7895843369802287328e-06
7.8050736301537105216e-06
7.867262878032297641e-06
8.0340721386693171981e-06
8.1798583302574629265e-06
8.2634807752743099144e-06
8.2894929385863708453e-06
8.2844170432772490549e-06
8.2618961737074487258e-06
8.2342683320956918389e-06
8.2264976832526708723e-06
8.2393905554225770993e-06
8.328093389304487581e-06
8.5984578631497478671e-06
8.8813561434807107245e-06
9.0793610081852772975e-06
9.1909771965225749016e-06
9.2348881130594937493e-06
9.2528946361520394314e-06
9.2889765773614750934e-06
9.4018415800068211373e-06
9.7306502128697555448e-06
1.0041619683715044949e-05
1.0195416257777883544e-05
1.0228787114308257163e-05
1.0212268757167609711e-05
1.0146856796175900554e-05
1.0079939998916113861e-05
1.0066070813484213125e-05
1.0103151453983189332e-05
1.034380727735545314e-05
1.0745878990378971983e-05
1.0968122596944078657e-05
1.10445661315908048e-05
1.1052567427196516265e-05
1.1052663947638659294e-05
1.1073624941459167987e-05
1.1165773267744073981e-05
1.1236465364574231636e-05
1.1240238707230372936e-05
1.120468197073673664e-05
1.1063877643395282713e-05
1.0914551821169871722e-05
1.0852340399193372497e-05
1.0836745849485894229e-05
1.0841281893326139166e-05
1.0892549789841874075e-05
1.0953178235319734122e-05
1.0995929989181355983e-05
1.1028301412260889934e-05
1.1049291604655926075e-05
1.1056447452147998155e-05
1.1052659738065900359e-05
1.104191001118179286e-05
1.1013576138709385373e-05
1.0951717443680201723e-05
1.0903192010229585408e-05
1.0875804000610347612e-05
1.0862346358577784874e-05
1.085614434997982565e-05
1.0865519467459839768e-05
1.0882708067274853451e-05
1.0891016830920581513e-05
1.0900544176123369734e-05
1.092215968192575955e-05
1.0968484674371758723e-05
1.1023773652519795266e-05
1.1075568632686898007e-05
1.1120056559460913105e-05
1.1159188184509088976e-05
1.1198079475444631064e-05
1.1240475719220386863e-05
1.1286353408605021684e-05
1.1332332591562984756e-05
1.1374760482803198498e-05
1.141079916706346577e-05
1.1440575792815103675e-05
1.146718729907146064e-05
1.1494400632887952449e-05
1.1525087165904647192e-05
1.1560911328786556637e-05
1.160218300298136181e-05
1.1647122683597080364e-05
1.1693457766927967202e-05
1.1737880595040577861e-05
1.1777972095346070377e-05
1.1812661874937442676e-05
1.1842359105206179355e-05
1.1869467800792759849e-05
1.1896834357774156111e-05
1.1927312696109546375e-05
1.1962907978789257029e-05
1.2002932855704269945e-05
1.2046266709192289624e-05
1.2089283068341113311e-05
1.2130183833003230199e-05
1.2165545436668429166e-05
1.2195016616348184171e-05
1.2218616255076046183e-05
1.2237313735949993277e-05
1.2252961200696607633e-05
1.2268235697660107936e-05
1.2287623824628343352e-05
1.2313725539540439996e-05
1.2347642625721086865e-05
1.2388260211391778382e-05
1.2432555543863929953e-05
1.2475783424607691144e-05
1.2515150360669859462e-05
1.2547848901288804138e-05
1.2573109083055418795e-05
1.2591205802509420348e-05
1.2603331903931639995e-05
1.2611518766860555798e-05
1.2784104638964932538e-05
1.2764209750860630067e-05
1.2744571040563768086e-05
1.2725833582210152519e-05
1.270810166408617759e-05
1.2691535814072318038e-05
1.2675471718650365579e-05
1.2659523329561650512e-05
1.2643072093122137501e-05
1.2626475898395126223e-05
1.2609923634065361441e-05
1.2594161671452631571e-05
1.257920295989885106e-05
1.2565328511950207892e-05
1.255201312778352933e-05
1.2539095863836732038e-05
1.2525816937766340696e-05
1.2512259851134858429e-05
1.2498221176131342399e-05
1.2484334426679895768e-05
1.2470437036807072636e-05
1.2456953258224207052e-05
1.2443409881648913532e-05
1.2430173064401616996e-05
1.2416851367361345895e-05
1.2403982732309511548e-05
1.2391132089368240456e-05
1.237863385270845659e-05
1.2365820433130227237e-05
1.2352968994890929695e-05
1.2339372336030840884e-05
1.2325219340770238847e-05
1.2309776135529250545e-05
1.2293655301492272769e-05
1.2276817733793607808e-05
1.2260359925783419677e-05
1.2244138730025185571e-05
1.2228786842074867593e-05
1.2213654031367383873e-05
1.2199122430416876647e-05
1.2184470788249656499e-05
1.2170234035451812319e-05
1.2155884101048317913e-05
1.2142197599951438071e-05
1.2128685038309074443e-05
1.2115906994253960037e-05
1.2102984777029186363e-05
1.2090329849198140763e-05
1.2077082336526044984e-05
1.206388775504695905e-05
1.2050140000730478974e-05
1.2036666220375893908e-05
1.2022863328157662129e-05
1.200940701708970089e-05
1.1995423842100430415e-05
1.1981350837954085663e-05
1.196618413790965943e-05
1.1950640120247107712e-05