/*--------------------------------*- C++ -*----------------------------------*\
  =========                 |
  \\      /  F ield         | OpenFOAM: The Open Source CFD Toolbox
   \\    /   O peration     | Website:  https://openfoam.org
    \\  /    A nd           | Version:  12
     \\/     M anipulation  |
\*---------------------------------------------------------------------------*/
FoamFile
{
    format      ascii;
    class       volScalarField;
    location    "0.0058";
    object      k;
}
// * * * * * * * * * * * * * * * * * * * * * * * * * * * * * * * * * * * * * //

dimensions      [0 2 -2 0 0 0 0];

internalField   nonuniform List<scalar> 
75962
(
3.38772297180259542e-05
5.5050714366419761011e-05
6.678773812364279677e-05
8.8144966948590358765e-05
0.00013479820231317618702
0.00016334688896984107635
0.00017086498733975193109
0.00017694373255411504123
0.00019481145323573640597
0.00023631254808612005129
0.00027206791959055943086
0.00029913612992448038478
0.00032487076503168811669
0.00035352190556847527423
0.00039597808040633475715
0.00045611514837806265039
0.00052709556352338181491
0.0006022668060430281774
0.00067186781925372403377
0.00073444798112271112052
0.00079397020299405078429
0.00084931049633027693845
0.00089288200023866326309
0.00092148336823036282751
0.00094262048541860485925
0.00097419068173155000476
0.0010313575017447125081
0.0011107713277806658715
0.001183642316577472077
0.0012292641890933090308
0.0012609461232561639411
0.0013141537438269188746
0.0014317201956826064446
0.0016071927605888140615
0.0017802043940702734492
0.0019021102805911753366
0.0019630421902735967037
0.0019875997816476897659
0.0020075533080805927494
0.0020434638200360457153
0.0021034855365885079918
0.0021886923838002622991
0.002294160000536831813
0.0024068636465907028259
0.0025090259868430909822
0.0025850635174560405473
0.002629757764182880965
0.002656563111796448641
0.0026956238702776288974
0.0027888688504682664603
0.0030336832386697277705
0.0033247436470955908823
0.0035493347008949860562
0.0036837287432799062023
0.0037487647755243443115
0.0037815431640998422788
0.0038034886113064206824
0.0038199453382067672172
0.0038352777608584489449
0.0038607729629660022391
0.0039158939371617528663
0.0040695085564938348471
0.004343031608220723587
0.0045659020459235030026
0.0046893037442502193135
0.0047399762839409054216
0.0047976581918255292031
0.004951459498883624584
0.0054188179521027978955
0.0059560075350752984466
0.0062920561998505031981
0.0064443030744932867232
0.0064881634098812104861
0.0064910721607719466114
0.0064813186444151694651
0.0064684353014789735398
0.0064667607927383534763
0.0064777020640670920221
0.0065496787704990159021
0.0068167534816667299871
0.0070857329747573928255
0.0071940408641256066435
0.0072049890461192709137
0.0071776499849427743971
0.0071145386214232645208
0.0070995472772683145338
0.0071159028456278233116
0.0072158709179953621146
0.0075490038601955184241
0.0079811123680401246938
0.0083326205372875224164
0.0085667342350357247177
0.0086806689350262013216
0.0087322010637974033231
0.0088059480172033612055
0.0089978716252669174031
0.009596297947322886962
0.010370943771382161794
0.010860173698069113674
0.011055151203931615558
0.011076647879851853062
0.011034069930837386853
0.010932826720389636488
0.010916698963569936368
0.01097856349791011786
0.011346496181325819996
0.012123894173519125794
0.012605923744437988465
0.012791457143982368563
0.012819407768723938348
0.012814110960503072995
0.012821257937708099503
0.012888052578063618342
0.012951417516998988549
0.01294969680157304244
0.012866426015235122443
0.012577860062760487514
0.012371233130885297968
0.012317226746536234436
0.012329197989614133768
0.012438082139700991705
0.012682031497681621468
0.012836711902443937935
0.012910757684321570032
0.012937269733966590135
0.012944753688856242696
0.012945984765106848327
0.012940789320619809633
0.012908415517925772922
0.012827294523220709316
0.012759156834101654729
0.012716579971761647269
0.01269622475859391586
0.012690280811828887064
0.012692106999010166132
0.012710105013799863349
0.012775902678647671484
0.012888865102217861996
0.013021885950606201798
0.013176912719944765956
0.013341027061839002762
0.013493738193180187038
0.013616071902843567692
0.013698903566208731064
0.013745121561128172474
0.013767118890577601312
0.013783284888333644305
0.013811465253125461763
0.013878971172660138286
0.014038835749768123831
0.014221072792174866903
0.01438834113005670913
0.014532072400404636575
0.014655878868570478349
0.014771582202112660057
0.01489155533987977266
0.015024432918502720821
0.015169343435256913907
0.015316358004496530287
0.015450899071870501447
0.015558878891018482898
0.015635060887355046316
0.015683183433384376843
0.015716770942529451754
0.015754758595789754988
0.015817797585473664101
0.015917246663989935429
0.016059036997537367436
0.016235068474245845788
0.016432978540073826801
0.016630557573432475788
0.016812554706832578966
0.016965320781526592453
0.017084520249628521588
0.017172197887563564467
0.017236534389211018853
0.017290698862496865773
0.017345543884836493731
0.0174123479034420936
0.017496517004937355705
0.01760082021780186301
0.017721493731114753428
0.017854123846954405436
0.017989342377076646129
0.018118094265688427374
0.018234079724078838813
0.01833245616022393179
0.018414424021571326739
0.020007482291141909236
0.019985401580263850718
0.01996503448064960648
0.019946605474809340347
0.019929182219845180402
0.019912511887715360348
0.019895514495709625685
0.019878501640525559485
0.019860871316265803904
0.019843275932251408511
0.019825406121119243386
0.019808330179162062651
0.019791601032688229539
0.019775528621024874437
0.01975886979572262156
0.019742222345663393984
0.019725071558178833286
0.019708514594790543101
0.019691495189839227503
0.019674756549985256832
0.019657298709026060218
0.019640346871512448512
0.019622843832778201489
0.019605663926972227012
0.019587630423433165239
0.019569910982337533623
0.019551515908270488547
0.019533514195918342399
0.019514546297708657008
0.019495496887935462316
0.019474810582572634615
0.019453334799713509901
0.019429835670396477382
0.01940610697425473527
0.019381929388824273991
0.019359540245546466575
0.01933801904151099052
0.019318589436745671473
0.019299273437318301833
0.019280995114170793037
0.019261735118057878025
0.019242835473439457578
0.01922287751813887835
0.019203706946173668135
0.019184052141126742286
0.019165621067775799602
0.019146399035619012657
0.019127625961494944956
0.019107198280865766993
0.019086891278388820603
0.019065321122549324512
0.019044737387038452453
0.019023824336363490822
0.019004341534248091194
0.018984197596441473865
0.018964548267183717334
0.018943346340666376848
0.018922325681004950604
0.018900126495971635021
0.018878658993176058306
0.018856706641679630426
0.018835947397610630638
0.018814972545467281706
0.018794778788081337867
0.018773636319431425551
0.018752711137537732972
0.018730925003620287062
0.018709852203549350025
0.018688187157513896225
0.018667093392745567892
0.01864487975030817285
0.018622920465430396753
0.018599767563776598012
0.018577228691886171069
0.018554016114251271202
0.018532081362287750742
0.018509723793865159869
0.018488486025457571971
0.018466080166563491466
0.01844400965626599026
0.018420461046580238751
0.01839767081383076805
0.018374476044477335707
0.018352975392078915012
0.018331439114060852497
0.018311149361469561403
0.018290099860856563752
0.018269598807099239612
0.018247966153331119515
0.01822659085944898158
0.018204015869791763393
0.018181863136140251347
0.018159216230613360599
0.018137808335173196544
0.018116609279502551844
0.018096670714589382922
0.018076685484600590881
0.01805746781895294778
0.01803791671035171601
0.018018698082421832907
0.017998737372438410737
0.017978589751309819594
0.017957605449056716906
0.017936565050759547407
0.017915168510080226733
0.017893844587240369942
0.017871903173029810713
0.017849777306228255258
0.017826839135109406875
0.017804372926676352573
0.017781747484466800535
0.017760447754689559496
0.017739353460738689627
0.017719675586664065253
0.017699820678549842839
0.017680712463455761085
0.017660787103272318488
0.017641127114071689097
0.017620662678823291458
0.017600516806989648794
0.017579964856408041712
0.017559764136910942928
0.017539404803802317867
0.017518939932326307168
0.017497946816966529482
0.017476580776401819811
0.017454798221502462741
0.017433525255089378503
0.017412097262371816625
0.017391693707634360566
0.017370703798471946039
0.017350523386507776813
0.017329641697275112444
0.017309122349800955265
0.017288368597990710906
0.017267784014638878215
0.017247612816507586209
0.017227646704221045298
0.017207992587415878172
0.017188487096815748684
0.017168933885636405295
0.017149618888681036899
0.017130448131045996479
0.017111118784002992549
0.01709225881618940332
0.017072773073149218742
0.017054174908446455283
0.017035004344258510012
0.017016658218490229859
0.016997762188987939475
0.016979746415513672503
0.01696100789228711242
0.016943326920616036402
0.016924339320179723062
0.016906312476687855584
0.016887115639430252956
0.016869019866861453133
0.016850082496585518099
0.016832461934280239929
0.01681323058841208487
0.01679568461329045484
0.016775629864336841918
0.016757689427101624124
0.016737769929191945173
0.016720415693247260569
0.016701897184017631265
0.016686149940238356737
0.01666854497066827534
0.016653194880006553374
0.016635247016054652974
0.016618912356341861841
0.016599876191897500882
0.016582410524134307689
0.016562293453602446036
0.016544238089902889993
0.016523928019668517042
0.016506425839468461675
0.016487044236355451882
0.01647085273163773414
0.016452515550268824451
0.016437240999338346981
0.016418937480326703526
0.016403549686582842571
0.016384558433791895221
0.016368776740997688368
0.016349417182743884031
0.016333501373717754929
0.016314439861515289687
0.016298954471273264383
0.016280438772147978743
0.016265662823977251189
0.016247918198224613889
0.016233297423319477393
0.016215664507819749218
0.016200903950721875363
0.016182524648186015492
0.016167240192416176131
0.016148183039727617011
0.016132468209435788659
0.016113305746484490183
0.016097761947935513432
0.016078789919606300413
0.016063694450099749028
0.01604495835807080717
0.016030525721398927036
0.016012296871707396018
0.015998455875802834736
0.01598065376100809426
0.015966961062044836284
0.015949330649402126969
0.015935835399447317862
0.015918510160772485901
0.015905468945972407041
0.015888656515687372278
0.015875962965128040394
0.015859569065940975346
0.015847170644290409919
0.015830867233704058045
0.015818486646083443348
0.015802233402804607976
0.015789876000041933035
0.01577395617375049186
0.015761940820153357012
0.015746151029208062949
0.015734237574463603299
0.015718492799171444874
0.015706541524554806788
0.015691018945908345728
0.015679339386505886794
0.015663378890628364831
0.015651221514222140446
0.015634125820933937601
0.01562151907928946426
0.015603933254802441685
0.015591736323694153216
0.015575050534848191783
0.015563522494473881752
0.01554762490179966393
0.015536494740200933184
0.015520946044857337337
0.015509599765707593466
0.015493849015663039084
0.015482375414271385902
0.015466554326522505627
0.01545527110460686096
0.01543982167456824095
0.015429296141140160653
0.015414125847024371524
0.01540411137339132118
0.015389730168935987498
0.015380150308542291093
0.015366470921347514036
0.015356954934012229455
0.015343437516005154972
3.2101097161405883979e-05
5.4225531264453948044e-05
6.7636235991952014515e-05
8.6009613453382285659e-05
0.00013199514519480711784
0.00017240060422321124879
0.00018799991272250318156
0.00019451194529637567628
0.00020593227818324486489
0.00023335502702793870238
0.00028225431681751570172
0.00032991580819498469252
0.00036236775870898685348
0.00038540597227328387024
0.00042438023559290431524
0.00049328056863136575567
0.00057258544066152074897
0.00063042795256787226461
0.00066735186318950105201
0.00071538054829934131194
0.00079021148414796789188
0.00087056503681146577868
0.00092700506242609039854
0.00095462235300199397778
0.00097530868646649273353
0.0010178141306942665219
0.0010941479623863908065
0.0011742556421582216967
0.0012343454912841736893
0.0012692614147224645302
0.0012965036067358337319
0.0013453628236335828973
0.0014640990325144830324
0.001692853796266410903
0.0019151405517126561008
0.0020638029255224958798
0.0021275994951604031147
0.0021417215108554313839
0.0021456825129368408897
0.0021551646864138357049
0.0021823437192461251147
0.0022584814504600170607
0.0023825265464267370193
0.0025140632409400066362
0.0026334860443478070972
0.0027221503640487720345
0.0027726027584717063273
0.0027958981004719152957
0.002818840637465817086
0.0028706955590432543281
0.0030292176534314580946
0.0033638462629137326487
0.0036504350366527420907
0.0038330583726999124632
0.0039182175303408501091
0.0039460930649502972203
0.0039537672300538314121
0.00395927054033459562
0.0039699062042733738662
0.0039954350302057340533
0.0040648962772780869099
0.0042711047037289886705
0.0045850283173368387712
0.0048410102975714021725
0.0049911924131918992964
0.0050499227087736726569
0.0050921745748372330281
0.0051923727929121341745
0.0055213234428461398229
0.0060447107980508597846
0.006413716252594287362
0.0066066434753695420581
0.0066774745626469239265
0.0066933328219078800508
0.0066942927247771732979
0.0066943920471176695391
0.0066969213455256729542
0.0067138972757012560164
0.0067940881122067779338
0.0070649623077809987556
0.0073425855142072666074
0.0074739399192820946474
0.0075003101012825002317
0.0074899513878297447819
0.0074457951387311115121
0.0074240120365112825113
0.0074287064922879588597
0.007483009410675163682
0.0077211134287446196028
0.0082659340873580521708
0.0087352678194538742329
0.0090456624080411211775
0.0091974555862037801757
0.0092642446061124705814
0.0093495128612718549771
0.0095619893442800453498
0.01015164382995677704
0.010807340923012203476
0.011221927354609537511
0.01138230520720721374
0.011394820865204279697
0.011349002261572595576
0.011265511276275437177
0.011261413612871451137
0.011355138444197535388
0.011858246185224895555
0.012745243417709604603
0.013272654903639566001
0.013475793872699920808
0.013512817676569496492
0.013521551021295794698
0.013567133376793532457
0.013744021274182215489
0.013870356358083086104
0.01388043379166235651
0.013806178608352398518
0.013498070872074255724
0.013243421074034299537
0.013173229590359068764
0.013184790740065351067
0.013302759731195708953
0.013561750986982163553
0.0137146343545464372
0.013778118461676700998
0.013794739553703781049
0.013796380211611889918
0.013792021224586937383
0.013765734026207353952
0.013676346270769893301
0.013580015103601577806
0.013518636652932852424
0.013486763982303015541
0.013474076810629197209
0.013470848917087866262
0.013472345922098897392
0.013484259153923872088
0.013526303440902902667
0.013639532712442697937
0.01379902281919016295
0.0139690807603222375
0.014125040314240437656
0.014244993917763695834
0.014319778046543770594
0.014356762344874731546
0.014376035108039945595
0.014402750695811627688
0.014461713668107476632
0.014576012560177511318
0.014719478146889307391
0.014873743971933183275
0.015023325617230152973
0.015158487364232451494
0.015279461255088664859
0.015396113861646706575
0.015519768714297145495
0.015659365007677162468
0.015815906328700619909
0.015984265039757354632
0.016151600984570739505
0.016301302510225101905
0.016418754693547168294
0.01649751478760140555
0.016541083273600896975
0.016563127170110412273
0.016584225029727221734
0.016625262411570411458
0.016708637888396739996
0.016843277096774824514
0.017026793501635648087
0.017246231145448785715
0.017480931149800236352
0.017704498384638563124
0.017898094427538296242
0.018042825656413720437
0.018132884106142513336
0.01817918510392740189
0.01820339180047937308
0.018228964785169460977
0.01827321397142829193
0.018346329610307986202
0.018448442655734760554
0.01857672487347263382
0.018720223045672557127
0.018869571489497662803
0.019012379791961402098
0.019141263400947208101
0.019251869185916332256
0.019344157356329844816
0.019422969817650067442
0.021089545780254490698
0.021062966620755688846
0.021038513364117904236
0.021015944608299412522
0.020995332942676490917
0.020975915022771327717
0.020957376717953089124
0.020938661387592500535
0.020919670760059183579
0.020900070149973963562
0.020880662035697196421
0.0208614617848938734
0.020843122030768632819
0.020825235946916695329
0.020807998491977459932
0.020790641833984505049
0.020773314952530024663
0.020755586094766919486
0.020738103988457986387
0.020720476945976715188
0.020703226122404206483
0.020685709992482176345
0.020668431977723143028
0.020650645712422425332
0.020632850275862413963
0.020614441532531471019
0.020596058157300822095
0.020577002395713334115
0.020557779043042265915
0.020537747840544740008
0.020517496772729740956
0.020496126666021071555
0.020473895650787329176
0.020450186354092840524
0.020426131332994781203
0.020402034890703961423
0.020379045407198870254
0.020356715861150287417
0.020335406110612040675
0.020314269087304888395
0.020293575777200607152
0.020272581336231634136
0.020251652590326605502
0.020230416305448521708
0.020209584328855011853
0.02018899431697853547
0.020169000940244125042
0.020148920492015203604
0.020128805045751489017
0.020108060852985616684
0.020086990028099119265
0.020065443083886941311
0.020044001785006010374
0.020022677351005751384
0.020001690579158380029
0.019980459675876506564
0.019958715046733892934
0.019936065003640930648
0.019912960951736315141
0.019889634417765100077
0.019866749926806794024
0.019844290514660196945
0.01982244027203163006
0.01980077652008212924
0.019779067491593051858
0.019757007077584577692
0.019734692782885473322
0.019712227052047535253
0.019689755153155404782
0.01966719300428173417
0.019644551218422501987
0.019621655322716723135
0.019598516460017888219
0.019574938355725469974
0.019551139197364973688
0.019527326052884111385
0.019503956417627272418
0.019480969279836394398
0.019458155361817709023
0.019434827147140440462
0.019410910538640416961
0.019386356944171838357
0.019361908999656535224
0.019337916523122108264
0.019314777071854347112
0.019292418736240022487
0.019270551685787781077
0.019248905221014647737
0.0192270589032935528
0.01920489366468896078
0.019182214471082256052
0.019159212157788336334
0.019135962462039080023
0.019113004782773435758
0.019090491015655675772
0.019068793677485432886
0.019047600289883958452
0.019026864483986778709
0.019006066577122695399
0.018985425702266314762
0.018964458965026898679
0.018943481680634005615
0.018921874348588038628
0.018900156347254813
0.018877897764037830652
0.018855877239135704349
0.018833360469005910875
0.018810700977124013289
0.018787171207889960534
0.018763403481417847973
0.018739576991576127607
0.018716411106503301476
0.018693955812983706344
0.018672344249816053702
0.018651328108513585274
0.01863086525205290972
0.018610564917761404646
0.018590368847559695514
0.018569707103549663169
0.018548962110648239271
0.018527531435473750671
0.018506338907833510404
0.018484677787275950733
0.018463534119830871116
0.018441668533937798091
0.01841989592597196787
0.018397119714414381791
0.018374503157657741392
0.018351784637260542404
0.018329602967063398505
0.018307780492084934493
0.018286190175650519213
0.018264548026986706514
0.01824304686623801422
0.018221181483524643424
0.018199944151037164564
0.018178155705120383617
0.018157466926177225769
0.018136067714867434852
0.018115622879955921992
0.018094497080737549644
0.018074211160970361789
0.018053453627665284886
0.018033684576572551334
0.018012992074225211286
0.017993401246667768689
0.017972272946198023652
0.01795260872408496744
0.01793136694984217086
0.017911790479959006916
0.017890818911802750663
0.01787162949671286527
0.017851044017478688575
0.0178323462335667135
0.017811933501965485083
0.017793389337271519474
0.017773169713620990545
0.017754904880322625732
0.017734802366510187682
0.017716627517773836376
0.01769576642765619684
0.01767716136905116836
0.017655314490459979998
0.017636285857662192811
0.017614595269290940494
0.017596347770157536733
0.017576389045652205528
0.017560361898252073443
0.017541984793200085524
0.017526779947614420235
0.01750806805709987507
0.01749143111169599446
0.017471060461296521876
0.017452709407885992621
0.017430816385686276337
0.01741170974478776709
0.017389664583393919101
0.017371305303165211764
0.01735065504312317472
0.017334067434749651088
0.01731473687272623227
0.017299250365663369766
0.017279898815867011236
0.017264134687388958678
0.017243887022877997517
0.017227413494700066082
0.017206677020188170663
0.017190087919277743933
0.017169719611273975834
0.017153822297559802312
0.017134097234360379236
0.017118846274187207723
0.01709967127842336454
0.017084571486637688265
0.017065513070315733307
0.017050164625118113121
0.017030464658548367246
0.017014590593349459419
0.016994065606596615858
0.016977578346671063497
0.01695659203967503359
0.016939941237491935866
0.016918874705363198818
0.016902640868285103565
0.016882076750268946996
0.016866724577294302245
0.016846991704222429032
0.01683254478361546902
0.016813432523344665898
0.016799412839005576498
0.016780619174432302027
0.016766681320656093984
0.016748128290262394996
0.016734441487720051051
0.01671608259150545242
0.016702695058096839881
0.016684755857716549593
0.016671810744832180756
0.016654012714907611564
0.016641097116204810191
0.016623358797568255768
0.016610354660296318408
0.016592772880863852769
0.01658016342547807484
0.016562855472963936704
0.016550369030188107761
0.016533135973388384671
0.016520691695088886297
0.016503651309344155584
0.016491398074626271303
0.016473979494591409201
0.016461345013777470975
0.016442837289768894721
0.016429642785901660967
0.01641070014512067618
0.016397766524554008988
0.016379397729073777445
0.016366977794273762647
0.016349262159479918677
0.016337072050017300423
0.016319619608391299631
0.016307407751539017976
0.016289912889952438274
0.016277651754172440396
0.016260265495034335881
0.016248447298552935042
0.016231623342447081687
0.01622060557278335105
0.016204237698782073679
0.016193777372713900886
0.016178006687525735979
0.016167781605029966224
0.016152390449622300306
0.016141849368545079652
0.016126324886715635853
3.2369403702506233187e-05
6.0462342800366419544e-05
7.4724077997291810192e-05
8.9678456102570226543e-05
0.00013394064481095686197
0.00018029250617319347578
0.00019510131063254652819
0.00020056429982960022047
0.0002113551015429099701
0.00024181690722817306919
0.00030735774015037216258
0.00036289639202650249067
0.00039533810184153082932
0.00041159022188246680799
0.00043062991979243294641
0.00047329943863453597004
0.00057553634091434490404
0.00068107909243691751137
0.0007580468659698315001
0.00081954419816878472556
0.00088455114712208103307
0.00094581303769486328205
0.00098640902722980472288
0.0010063518783639735163
0.0010229624928318106075
0.001056967725338302461
0.0011423462111620642095
0.0012371890376636567824
0.0012998462375537406851
0.0013331548825398344214
0.0013623607904097612565
0.0014191513619813515834
0.0015546253632137362315
0.0017574481227541625169
0.0019570786954615929445
0.0021074615446434342286
0.0021911807135762020708
0.0022271438833975990002
0.002246464613382136849
0.0022752636979569817316
0.0023292605321082273696
0.0024152796339137493943
0.0025293236093126432971
0.0026550955718601626336
0.002767933921773246906
0.0028456164054166698842
0.002884060317161024796
0.0029031787142056284141
0.0029336620387323958381
0.0030162497347074805447
0.0032922686148316262535
0.0037223639853639790137
0.0040225400546404898455
0.0041629490123112422931
0.0041971697835053211126
0.0041960235700917785859
0.0041826041393262253926
0.004177477738574464361
0.0041821158982809462923
0.004211990277917652091
0.0043300993833902583566
0.0046149593941057524479
0.004878918692870718582
0.0050637826985821731904
0.005158317462871609034
0.0051934621740897385367
0.0052283675924317150538
0.0053223634857844700358
0.0056492857629829897059
0.0061611403320538139783
0.0065076654595884100146
0.0066804290958286279001
0.0067412153130978333046
0.0067562839223084432405
0.006762841589838307875
0.0067756157315589354145
0.0068105496013183310089
0.0069310334131664408028
0.0072403074927200180774
0.0075151240019512288715
0.0076763071263986027912
0.0077321434354259161587
0.0077332607851951637098
0.0077048561694597174701
0.007667120314674449183
0.0076646484492125894691
0.0076985060944715797901
0.0078735614387180335311
0.0084021652116122551301
0.0089763066189897135205
0.0093938983060912768092
0.009639302252612844471
0.0097442800670645198652
0.0097938666505702921122
0.0098797081535828366189
0.010126658111744509666
0.010850969961492639218
0.011564801466428248009
0.011936760199645107122
0.012035172037684189333
0.01201888381708777348
0.011888526087996120761
0.01175405053047370342
0.011744105808100178262
0.011853333005947500056
0.012445808067543501219
0.013456764101357727298
0.014042277550975970288
0.014258270180209052513
0.014293769931291076813
0.014303594830107230554
0.014362914225856875799
0.014606728728193763348
0.01480105243424458504
0.014826901173174450443
0.014757459046543899492
0.014419314146286513201
0.01406329128837901371
0.013933722911035702555
0.013922127118515405242
0.013958550283733647812
0.014111505552404755501
0.01428663152090533725
0.014412999965515677081
0.014511486397956666408
0.014580941852216207366
0.014615949798713686811
0.014624732903598336442
0.014618824239218291758
0.014571145064668385855
0.014438942583122940308
0.014343726472133385558
0.014303085483139533693
0.014295361543935349372
0.014301913927574971125
0.014344497102294276672
0.01440299529798074081
0.01443246477999478479
0.014459799407949702407
0.014516019429307355088
0.014638384203933679784
0.014788207393563467668
0.014932529282991283126
0.015059483427950279624
0.015172798670713321181
0.015286430534954200886
0.015412176786079269039
0.015551500747028029065
0.015695340835578969196
0.015832227352134683324
0.015952043651864051405
0.016053578653739707105
0.016145584083062585606
0.016240295969822484551
0.016348196431838709491
0.016475420285484574517
0.016622121393389966554
0.016780924977989920832
0.016942765281285576684
0.01709656061786767739
0.017235313534892160447
0.017357226557275392403
0.017465531301093031868
0.017568965576441990251
0.017676232935096188037
0.017794761895437681554
0.017928858267071478422
0.018075152603379409516
0.018230113687164564013
0.01838344847441449742
0.01853034015547011526
0.018660423385644379912
0.01877234284685599594
0.018866360901291796826
0.018946627877012230806
0.019020557224505407756
0.019097566524979212726
0.019191087910910384351
0.01930722073461363722
0.019447198783234267983
0.019606310248935845952
0.019775410716257459803
0.01994071007683742916
0.020094312494538954517
0.020227507781570515377
0.020337544386941078939
0.020425122840885115427
0.020494473753301153257
0.020552940503969562708
0.022243705086946272131
0.022211094662951097467
0.022180543321454315037
0.022152714631474064444
0.022126841602694808514
0.022103379194508800815
0.022080920796148765378
0.022059313085976535451
0.022037085120232315083
0.022015214063690783514
0.021993272548987401888
0.021972447779624093567
0.021951745777186629227
0.02193206853745714377
0.021912481173127551504
0.021893845911407819327
0.021874752236352334317
0.021856008539691162973
0.021836541359473469331
0.021817816663269734567
0.02179863593919407691
0.02178019359707021943
0.021760798878776108772
0.021741764267536635435
0.021721710415835027846
0.021702426215862959807
0.021682323672862990893
0.021662675456529910389
0.021641572354296128439
0.021620776836541406862
0.021598780789513660761
0.021577160312841868472
0.021553814459788461777
0.021530517893768523485
0.02150596944126772006
0.021482511861750888671
0.021458404905198250057
0.021435353546750617743
0.021411367360506881885
0.021388507926479231186
0.021364875060344453578
0.021342463510474484617
0.02131915441051071558
0.021297201738901164192
0.021274628481292284093
0.021253635244124231135
0.021231695133465264963
0.021210881660374075741
0.021188679510437114645
0.02116751558425341434
0.021145007678361495834
0.021123587082035714252
0.021100808893428312646
0.021079135923017508492
0.021055941285596669471
0.021033598765813461828
0.021009230906610665279
0.020985535194196554276
0.020960124115675288908
0.02093612316539077145
0.020911199713356677654
0.020888163464613907633
0.02086409910826628536
0.020841497049215972071
0.020817299023224749427
0.020794321809398635947
0.020769923631981612039
0.020747012775953626446
0.020722529584149541187
0.020699416574062320245
0.020674612972622619794
0.020651522313019133464
0.020626727041798683521
0.020603333430521921649
0.020577844838415456502
0.020554009733028334034
0.020528752967820328157
0.020505654500161854537
0.020480669395718183873
0.020456880583098024928
0.020430524668306044439
0.020405596106732006717
0.020378959045535511435
0.020354665127209268377
0.020329151151953234883
0.020306262172334544475
0.020282085641771457202
0.020260135692563338572
0.020236309393601357304
0.020214029434995537532
0.020189648210196215611
0.020166896920687026745
0.020142365270575265934
0.020119696698854407785
0.020095652276709993767
0.020073743204812484475
0.020050621295076211104
0.020029317737749852135
0.020006341166735074066
0.019984777572261816503
0.019961517835807889715
0.019939811663841792294
0.019916249654628351978
0.019894143262315470977
0.019870049847294544293
0.019847514685447341376
0.019823076532492506924
0.019800042970042161516
0.01977479116307723564
0.019751130910560799059
0.019725907347882494502
0.019703061831998103237
0.019679075645991923882
0.019657261736867250035
0.019634088225218372659
0.019612982116697992574
0.01959066047106777439
0.019570203480783903566
0.019548032419413042399
0.019527127868250927778
0.019504094503213605799
0.019482304239454299039
0.01945879214065755064
0.019436738088015916015
0.019413099860221726817
0.019390688652604209929
0.019366298533866319748
0.019343546402673626738
0.019318843501900759274
0.019296932086847198851
0.019272709985036856617
0.019251621889939108528
0.019227526742449450869
0.019206404555329688322
0.019182357735883188293
0.019161124063535511786
0.01913753178278585973