/*--------------------------------*- C++ -*----------------------------------*\
  =========                 |
  \\      /  F ield         | OpenFOAM: The Open Source CFD Toolbox
   \\    /   O peration     | Website:  https://openfoam.org
    \\  /    A nd           | Version:  12
     \\/     M anipulation  |
\*---------------------------------------------------------------------------*/
FoamFile
{
    format      ascii;
    class       volScalarField;
    location    "0.0058";
    object      rho;
}
// * * * * * * * * * * * * * * * * * * * * * * * * * * * * * * * * * * * * * //

dimensions      [1 -3 0 0 0 0 0];

internalField   nonuniform List<scalar> 
75962
(
1.1457404467037552998
1.1462926005647020578
1.1468004717424953309
1.1470384748322646207
1.1464851894621679307
1.1458919484651999277
1.1459705934313624276
1.1464808007677160795
1.1468040858649317659
1.1468786674990709695
1.1460868973216109534
1.1449022213127395542
1.1445864118114339458
1.1451419429104767733
1.1457364123004825096
1.1456354157647137271
1.1449431115613242227
1.1445797229487670865
1.1448062758096479996
1.1449673226352499178
1.1447721649183437709
1.1445477002768278396
1.1446396156303910718
1.1449293239869848815
1.1451972898020759128
1.1454329284435431635
1.1456035750178092947
1.1456043506808657462
1.1455431316678073017
1.1455768593337971595
1.1456237834303104606
1.1455397132361833101
1.1453187347613240643
1.1450784189866891616
1.1449169086177382049
1.1447685403281024907
1.1445016536943020125
1.1441776413382278577
1.1440544043085505432
1.1443179351600685223
1.1448673606162944605
1.1454770715587210272
1.1459305446971144171
1.1461252522499936202
1.1460221272815342974
1.1457661018473761505
1.1455276009351988975
1.1453153719345083861
1.1450122324895843917
1.1448254410142777449
1.1449170060665729842
1.1451393600302921527
1.1452403472685361852
1.1450968919712356531
1.1446407502509130527
1.1439861877939128121
1.1434983940964980054
1.1435135862058538603
1.143978602711777981
1.1445281730381176022
1.1448366359445270035
1.1448550105630992402
1.1446851481932760475
1.1444021485762447821
1.1441007331323469476
1.1439617958927750241
1.1441035236183125789
1.1443749959944722328
1.1444473221162965171
1.1441339828547250068
1.1435653918821704345
1.1430553535171608104
1.1428421363184688708
1.1429515588052938657
1.1432444616102659385
1.143531922903838538
1.1436561972764280881
1.143594646658045777
1.1434994250556469453
1.1435265740966449322
1.1437131836120029149
1.1439460406973662732
1.1440661765388713267
1.1440178592603329477
1.1438421095820336948
1.1436280807294654238
1.1434618721473888137
1.1434078953863584527
1.1434888898963500026
1.1436360248559485076
1.1436930275328056617
1.1435764621863613311
1.1433633755804621934
1.1432609003499147882
1.1434571746998607455
1.1439680915616849965
1.1446073247582886356
1.1451175253411611799
1.1453476883242021955
1.1453199947994261443
1.1451575702820655511
1.1449583425132965342
1.1447089209205842941
1.1443432847219978665
1.1438449329123836495
1.1433094017444482837
1.1428892115803199747
1.1426847532896842186
1.1427270475123230131
1.1430094849921146327
1.1435105248226526964
1.1441593418707769469
1.1448325891241697416
1.145372330104948988
1.1456583177358430348
1.1456385616059241439
1.1453264629915762551
1.1447835250117723849
1.1441249373984230253
1.1435186566489925486
1.1431235948282474357
1.1430124394639062935
1.1431446552952928553
1.1434282434430875774
1.1437957267783585014
1.1442149965369028397
1.1446375669577479872
1.144962504010712312
1.1450635331430631947
1.1448606563914105472
1.1443855262390456584
1.1437694723667317653
1.1431816783855324182
1.1427535048598054246
1.1425420540057296126
1.142549313877336381
1.1427673343858710808
1.1431926001975263318
1.1438004569177582237
1.1445196873916543279
1.1452477006066128506
1.1459115926110901018
1.1465096162505803434
1.1470925707920274217
1.1477068378185422137
1.1483346692036213721
1.1488891966088736751
1.149275396928964188
1.1494561774051554881
1.1494748603559941103
1.1494365471608480878
1.1494530593188894141
1.1495825228355236458
1.1497939423738952058
1.149991099235853298
1.1500745040726423341
1.149999723636158544
1.1498045529451916824
1.1495897383515674139
1.1494675286537816561
1.1494985999739890659
1.1496454491902392547
1.1497968742975881451
1.1498453707273317281
1.1497600110487276037
1.1496051242694682593
1.1494928564082314004
1.1495010204247793073
1.1496308409848554621
1.1498206346744856976
1.14999601259738915
1.1501170264562796675
1.1501863458407755036
1.1502281012362731705
1.1502571019357492599
1.1502646403018703669
1.1502333117915570782
1.1501577412558880997
1.1500569276424512655
1.1499662265161996189
1.149917723360881272
1.1499202233385539262
1.1499558151490749669
1.1499915910273972308
1.1499989956546226022
1.1499668514612020331
1.1499052515770955551
1.1498344063917689262
1.1493093144593449217
1.1492028694813134493
1.1491371511546588646
1.1491164539209293149
1.1491124954345464104
1.1490786758695270553
1.1489816114916624468
1.1488236810055934001
1.14863917721669484
1.1484722116751018284
1.1483537057022219496
1.1482902288798415569
1.1482657490450445259
1.1482566414492316742
1.1482510029285177833
1.148251603828517986
1.148270382935808076
1.1483134538312154138
1.148378269283819586
1.1484566607511157432
1.1485419787410469095
1.1486336052360641702
1.1487373916556862241
1.1488596747485091409
1.149003097957783881
1.1491651666712792146
1.1493409329578208045
1.1495224764350759905
1.1496928746471779537
1.1498233024023991611
1.1498776183801091566
1.149828830262800361
1.1496780264471564426
1.1494633475551108148
1.1492497050406207393
1.1491022341137375751
1.1490596959847076963
1.1491203404180014847
1.1492475840441880308
1.1493966546018432595
1.1495324187138786787
1.1496563334507752252
1.1497897460323240892
1.1499492176294310308
1.150139511210917842
1.1503473570492397382
1.1505456974369105971
1.1507058139216288506
1.1508100571815369495
1.1508590335376560621
1.1508711421201374137
1.1508731590898066965
1.1508867491326142396
1.1509166477375765147
1.1509508989466414874
1.1509639589471887255
1.1509366025830183311
1.1508662202942130381
1.1507720672406591689
1.1506866733580767281
1.1506395902034742829
1.1506457599783090906
1.150700267601762139
1.1507830015688578218
1.1508712625328010315
1.1509499768531195052
1.1510142902816484778
1.1510677638397370792
1.1511139112419745967
1.151148972987035668
1.1511663022580358451
1.1511614161161098924
1.1511372823085310735
1.1511035557160667064
1.1510715447856574301
1.1510466057144135288
1.1510234796898832776
1.1509874343851689282
1.1509237578085240727
1.1508272898567029063
1.1507095334119825658
1.1505960299372282041
1.1505168455068077726
1.1504942135072087073
1.150531672857317167
1.1506114596633474356
1.1507008791758068789
1.1507643573922847757
1.1507769826347218345
1.1507331077088758242
1.1506461290646510243
1.1505426693507663227
1.1504542492815847954
1.1504071534137119137
1.1504177394177688143
1.1504882870618715618
1.1506104359023821004
1.1507657780835061079
1.1509319133094160215
1.1510887296686489467
1.1512220697535981984
1.1513247196925631144
1.1513927132025714162
1.1514233650299570133
1.1514129402995183504
1.1513573923311963831
1.151255977824633403
1.1511164817711683206
1.1509573828727641676
1.1508048800019929914
1.1506870134688751417
1.1506256535991559176
1.1506302108477641788
1.1506965587858795086
1.1508088486761542946
1.1509439759905804035
1.1510770057352031071
1.1511874289990597919
1.1512610279258199686
1.1512917195721721342
1.1512786066278839492
1.151226791415570494
1.1511452631076204423
1.1510446324018792641
1.1509342478787822905
1.1508235285055645747
1.1507125364365915487
1.150600276314373227
1.1504803201546285329
1.1503456626655570449
1.1501974990538996746
1.1500414681169643938
1.1498896245921206294
1.149758154376771202
1.149660416976354016
1.1495992909424568307
1.149565493703665453
1.1495420415854382679
1.1495111849490013967
1.1494618933372331426
1.1493947145206100391
1.1493195179621455981
1.1492521601778826756
1.1492063090518294111
1.1491864343818662952
1.1491886551680692286
1.1492044345786878168
1.1492244879001023428
1.1492411191428493211
1.1492527772103857675
1.1492644191324075109
1.1492814841527099201
1.1493045799075134461
1.1493282251194343324
1.1493439521560333549
1.1493443995106424893
1.149326240874378291
1.1492911876528713044
1.1492457303055421125
1.149198418513716069
1.1491578523193546335
1.1491306737650548442
1.1491216951208695907
1.1491349019847767465
1.1491736900092841545
1.1492403232496062326
1.1493340102562237259
1.1494491621018836369
1.1495738565596944625
1.1496884313371085184
1.1497707100467942087
1.1497991624780055098
1.1497622222350394328
1.1496600569859969365
1.1495085879506057314
1.1493332978633192809
1.1491664464238786625
1.1490347931290563199
1.1489563387926464699
1.1489315270243869449
1.1489479975340031181
1.1489828453801924635
1.1490117765808791628
1.1490189705590792002
1.148998686498791999
1.1489607844659410762
1.1489223818232061625
1.1489021701445509827
1.1489113859561697062
1.1489571698124119159
1.1490368476077483795
1.1491339954968589065
1.1492341270374133444
1.1493264463677161924
1.1494018940214130176
1.1494539776787680019
1.1494790238960375106
1.1494766993057539128
1.1494467639685506111
1.1493896594923787013
1.1493060297890809185
1.149196894251931278
1.1490682088378287862
1.148931313972233248
1.1488028802363288161
1.1486996143868188902
1.1486358439139239263
1.1486206912160128457
1.1486508029065589653
1.1487154024862487045
1.1487990558927152485
1.1488844730117449
1.1489582308171983893
1.1490149190220486641
1.1490566885936976949
1.1490911551713283156
1.1491283187223859663
1.1491769706223229353
1.149241820374290679
1.1493230908910521126
1.1494181930436986327
1.149523326239346499
1.1496340824694670779
1.1497458060856808881
1.1498533022260670755
1.1499497930400814916
1.1500272639284379039
1.1500781539046422974
1.1500968171530603357
1.150080779262795172
1.150031945534180533
1.149956751546066025
1.1498649623323573543
1.1497673647020081322
1.1496735145963870028
1.1495894615825268392
1.1495157979152210714
1.1494485248253440979
1.1493817538118598076
1.1493100503146567171
1.1492305665527029479
1.1491447279060267306
1.1490577936995287622
1.1489765852882278807
1.1489069976043644328
1.1488521790837040726
1.1488131878041309974
1.1487897395728947636
1.1487792151300912913
1.1487758518813193653
1.1487720180272620318
1.1487600630378402844
1.1487336106920160717
1.1486870638842496817
1.1478160764531391003
1.1468099045862172325
1.1453803597284690774
1.1462569646274900492
1.1467677304026449026
1.1462709746580763692
1.1462728101529890967
1.1474023969680124946
1.1476424551873536384
1.1471313850593320982
1.1463837696564673774
1.1454068849076075587
1.1450634736736706731
1.1455685450681725168
1.1461753525836184675
1.1463221634120204229
1.1460251769506286657
1.1455711605025142852
1.1451247608865411376
1.1448180837009251931
1.1446732619382573581
1.1447917638588718248
1.1452323965970787611
1.145727636186008036
1.1460469291496135913
1.1460777822398051651
1.1459547325543919527
1.1457766825527551102
1.1456360484555008217
1.1455929448551696037
1.1455562830814507436
1.14543764701381523
1.1452801824694236466
1.1451785216953327406
1.1451779620379862745
1.1451747035581678613
1.145020001214013039
1.1446843913612196886
1.1444835799961106115
1.1446748724807878084
1.1451649532330110404
1.1456373684565634985
1.1458495679957276803
1.1457967674353353171
1.1456216174266653507
1.1454906064039567237
1.1453901422045962288
1.1451229956593842463
1.1447482109842881393
1.1445665200968047071
1.1447561584883456653
1.1450724042801545544
1.1451571540899752044
1.1449145202557475809
1.1444638733804124442
1.1439636787316982414
1.1436475443145994735
1.1437251398001131442
1.1441413590714593074
1.144615313739070217
1.1448776660522359538
1.1448599492738655847
1.1446078102460257586
1.1442312093493289815
1.143883394265243103
1.1437643321032386901
1.1439898746411509833
1.1443747811637101641
1.1445990042715135093
1.1444339504788134665
1.1439168343028178754
1.1432858744396241502
1.1428217180282640442
1.1427296952484355952
1.1429955671964882047
1.1433586455115640756
1.1435295769934750165
1.1434373067784329159
1.1432825718802448467
1.1433208127355576345
1.143573719592415161
1.143846690127936272
1.1439460455371086578
1.1438324363037291054
1.143617892027841032
1.1434398696428815789
1.1433730225726470575
1.1434318360489099664
1.1435560634780710387
1.1436735411837701815
1.1437127748087920764
1.1436426131157826358
1.143527012163299883
1.1435035056930351605
1.1437219327066867613
1.1442165891360616126
1.1448427671267975558
1.1453387747746883729
1.1455285478627950102
1.1454378432323832904
1.1452138578584629691
1.1449826905856506087
1.1447469689845430896
1.1444315189884870509
1.1440095159825673932
1.1435668211812251016
1.1432189459313197855
1.1430382463898998147
1.1430428944736066299
1.1432502593622595466
1.1436903987280573336
1.1443315657827675125
1.1450388950662957477
1.1456051975931864639
1.1458809977481356768
1.1458130785852431721
1.1454547791896809716
1.1449121654341503085
1.1443155233584509922
1.1438046145289180178
1.1434844946024877999
1.1433940908148867432
1.1435021635473212598
1.1437408048815522754
1.1440490770078319827
1.144387842087162932
1.1447124844554190659
1.1449457058437648715
1.1449911189068009421
1.1447765229624562444
1.14431220494302055
1.1437052651455625885
1.1431217136574136628
1.1426990771798124502
1.1424972175358278914
1.1425224396721498366
1.1427740053221080441
1.1432537716115136472
1.1439388986505689694
1.144743370578457986
1.1455373339683367906
1.1462257373731206123
1.1468006323647823574
1.1473280573132940141
1.147872054456915647
1.1484301643778802582
1.1489318443461322694
1.1492955119917371842
1.149490546827010462
1.1495606251077428173
1.1495995222366126587
1.1496989150850700501
1.1498900434255687752
1.1501154950218770434
1.1502673776877465617
1.1502636209587455696
1.1501000306937996243
1.1498536576601867676
1.14964192884793448
1.1495540274775768452
1.1496110022392735939
1.1497563100105423484
1.1498867934548064884
1.1499174596936085901
1.1498344219570064695
1.1496984927437652324
1.1496045121854447935
1.1496172676524676337
1.1497352402766793933
1.1499077583696986071
1.1500759155064501638
1.1502116460532811892
1.1503198565040915202
1.1504104695513079903
1.1504735724487364923
1.1504783973369610006
1.1503987945986353658
1.150242844856049329
1.1500577946639329863
1.1499073409431455062
1.1498313953327952142
1.1498274611038727944
1.1498596231137128143
1.1498870743997127164
1.1498839649190941703
1.1498494511943133656
1.1497985106092527552
1.1497410218709709362
1.1496713521489974053
1.149391877887177893
1.1492617395171063066
1.1491232666861146416
1.1490125107191142551
1.1489435512606918088
1.1488988912806947784
1.1488403820667327793
1.1487346810877678838
1.1485770712189633525
1.1483942393202550836
1.1482291812781797447
1.1481187460624715513
1.1480778214203186671
1.1480941944594633686
1.1481401971675702089
1.1481899468274709974
1.1482303653299779089
1.1482630138917644391
1.1482974466015620774
1.1483421803139293171
1.1484005477749466007
1.1484721135734810016
1.148556512037310684
1.1486564345847709578
1.1487752108557662822
1.1489137619601283991
1.1490709981579481092
1.1492415935245015035
1.1494159358755573486
1.1495768522306955006
1.1496973701652226652
1.1497471349920060923
1.149706909113247022
1.1495814964013222337
1.1494054588753921387
1.1492332665863731478
1.1491167375740110046
1.1490838248487216244
1.1491290500909989714
1.1492228460533355783
1.1493285556980061823
1.1494282871830279191
1.1495252437114036326
1.149633325281043339
1.1497709166944389825
1.1499429756103887179
1.1501345299363086028
1.1503204396903619067
1.1504782004888669533
1.1505967968045389682
1.1506794908316411163
1.150740328392017009
1.1507951938023599503
1.1508528884555995209
1.1509091509610327453
1.1509462131181977806
1.1509439606410065693
1.1508914838760566646
1.1507975889756574261
1.1506885869021126201
1.1505980679118257282
1.1505520028701075042
1.1505576148222036448
1.1506026225574328414
1.1506648504224510354
1.1507242986275350027
1.1507732968388961758
1.1508170144838587579
1.1508656544763469221
1.1509253340168406066
1.1509902403935332593
1.1510454903606057719
1.1510770425927188132
1.1510799236430617754
1.1510588898174036743
1.1510243890984463988
1.1509839536841759422
1.1509368518735818565
1.1508733488027103053
1.1507829845243207068
1.1506643443899486901
1.1505301254060487093
1.1504065374995424698
1.1503216358263268493
1.1502943861604049136
1.1503257805168356498
1.1503968719252219977
1.1504768875569577613
1.1505353387823598066
1.1505531400435409228
1.1505281261187993991
1.1504743110168627052
1.1504147866405884937
1.1503731729389599092
1.1503666273376340623
1.1504019861356169496
1.150476111437710891
1.1505792852553924366
1.1506993424229305933
1.1508239316817405751
1.1509421295216388792
1.1510459116848135164
1.1511291825008653777
1.1511859639564294699
1.1512089285580271447
1.1511918089652606323
1.1511319765590117825
1.1510339686060819808
1.1509110084042613042
1.150783758301235471
1.1506753346993985332
1.1506057221976708771
1.1505863001529881284
1.1506174828796615905
1.1506910521991076113
1.1507937849562646093
1.1509108933500700189
1.1510291497675599892
1.1511354203849497591
1.1512195627742751736
1.1512716774693279032
1.151286629433965425
1.1512627244137056959
1.151204621264923178
1.1511196207934237812
1.1510188408854267195
1.1509079267042934269
1.1507925193822823307
1.1506712874997211404
1.1505407206878812687
1.1504014128243074122
1.1502554236362940721
1.150111717474479045
1.149986060646192465
1.149892466090851384
1.1498368020425278058
1.149811489472164272
1.1498024116086389412
1.1497902151909211721
1.1497601417952389991
1.1497061917405657638
1.1496331288296903761
1.1495526735870889024
1.14947933695216431
1.1494240124440577855
1.1493877312006537394
1.1493631835736508595
1.1493392318470743163
1.1493092846271102392
1.1492732048034417502
1.1492361330496374539
1.1492068594964846007
1.149194510470518571
1.1492045693108730031
1.1492342465590450473
1.1492721416229574327
1.1493034959930652494
1.1493165108583867084
1.1493055232235080965
1.1492718137449382532
1.1492224818778986606
1.1491679755739920843
1.1491199797077673583
1.1490895913899821235
1.149086649575004504
1.1491186693908994609
1.1491898261109834145
1.1492976027560086738
1.1494330262475118687
1.1495788117665151074
1.1497109295269603013
1.1498018688537483545
1.1498280104375671051
1.1497774297220550999
1.149654640022665042
1.1494809861187231803
1.1492891312932485004
1.149116209779979858
1.148993135034518609
1.1489353427032462651
1.148943017428131208
1.1489957681732916317
1.1490646461617655127
1.1491244016292045949
1.149153325416679472
1.1491475023272477163
1.1491203062430770387
1.1490932776563864692
1.1490848522753929206
1.1491142165381686979
1.1491833629603069866
1.1492831858070213791
1.1494001052144031672
1.1495131700509457762
1.149604241508158653
1.1496641917194725391
1.1496905829152137546
1.1496855096374460903
1.1496515375244558133
1.1495902514835496522
1.1495017992129235029
1.1493859475623893207
1.1492455864542199251
1.1490872601558070887
1.148925240277546056
1.1487760264670574539
1.1486606849533986807
1.1485947206008522148
1.1485837629764770185
1.1486225245305461407
1.1486958955937509597
1.1487839080354884658
1.148867371248218916
1.1489316174828601014
1.1489706624940270174
1.1489890268642377613
1.1489975325277876905
1.1490087859950319782
1.1490337662873082447
1.1490793292271350712
1.1491469895033332715
1.1492342073692887183
1.1493371332174155963
1.1494521379603961364
1.1495748353960988375
1.1496988612120204731
1.1498154349398215235
1.1499136035983166249
1.1499819250433163109
1.1500118571513033849
1.1500004445214950799
1.1499508512508374025
1.1498717497342259009
1.1497754164311200231
1.1496743091642589452
1.1495779803665222563
1.1494916666906700442
1.1494159115037632102
1.1493471741388490148
1.1492801317544805162
1.1492099946352023476
1.1491340314966491665
1.149052780172763466
1.1489705032350856495
1.1488937726451167176
1.1488292834739552983
1.1487815778173113834
1.1487511554449156836
1.1487351189357291048
1.148728886014647399
1.1487266882504596488
1.1487217399023892384
1.1487066501447922295
1.1486745452977191739
1.1486202719991533971
1.1475540681740039606
1.1461563845053377442
1.1452662805042610472
1.1462162218523639368
1.1470088308258694632
1.1466243149548944746
1.1468709405236605647
1.1474676568813719779
1.1473627860962576364
1.147261566213413575
1.1471007751305308808
1.1461362775485359755
1.1452702655903150841
1.1451985676693456906
1.1455781819006078948
1.146300962217032593
1.1469538917562636104
1.1466979669696892863
1.1456529045374315157
1.1448409893323634456
1.1447166744285930395
1.1450361726771094428
1.1455853242730593688
1.1462210002098194295
1.1467077521808199947
1.14685954964289194
1.1466561110200990115
1.1462943979610777934
1.1459859085424726199
1.1458221482554689086
1.1457031580028387285
1.1455586400343156228
1.145490609945278182
1.1456078960225031249
1.1458253109864107167
1.1458947467265465647
1.1455884102383104839
1.1450674843213737297
1.1447547073959098984
1.1449040481909589229
1.1453406925625981838
1.1456571430605790862
1.1456421582247713342
1.1454338129866377116
1.1452831515585597533
1.1452511786993506693
1.1451480661248252257
1.1448191958627751408
1.144455591073227696
1.144401694903124822
1.1447102524789638522
1.1450511470598006003
1.1450476104737210559
1.1446853675320078914
1.144248803989512453
1.143912682535837444
1.1437714122390290061
1.1438821567374020116
1.1442087701039420633
1.1445636614522354257
1.1447322660494705371
1.1446211034525777261
1.144301145338861625
1.1439433700265497773
1.1437347219912485929
1.1438041758310950602
1.1441181656715981863
1.1445053930656778896
1.1447008688442912305
1.144522145956999859
1.143973194355202283
1.1432524594833302078
1.1426946631679182342
1.14260379667207701
1.142963464532390061
1.1433905414763403385
1.1435056888463523972
1.1433042662812347157
1.1430974313803612397
1.1431874139894093734
1.1435104839353149586
1.1437789179683628404
1.1437988829134508872
1.1435955540192452862
1.1433558447831566607
1.1432462915205341414
1.1432910962942901545
1.1434100631114205715
1.1435115347827127241
1.1435759662299596062
1.1436282519385787548
1.1436852418936720444
1.1437560206707593213
1.1438747662908930192
1.1441138496796208202
1.1445429217944400602
1.1450706363655362985
1.1454790622920685284
1.145617186648990149
1.1454880261422424326
1.1452194335141063775
1.1449209308619952008
1.1446285186394844491
1.1443176974532203172
1.1439844133817007599
1.1436840497514957349
1.1434771293264363035
1.1433950344358403406
1.1434445963363233378
1.1436569931616868967
1.1440658887552270784
1.1446456874190775732
1.1452695372543304497
1.1457536721506667021
1.1459503017154348825
1.1458261314607609549
1.1454548389615164528
1.1449716652566090946
1.1444937425858721092
1.1441099304135886605
1.1438780435881061859
1.1438171521314726142
1.1439150321718825065
1.1441341389655790284
1.144400210495329695
1.1446433097530044343
1.1448107745021138815
1.1448715650475769223
1.144786086054278007
1.1445218446276297364
1.1440934681008920748
1.14358345244166415
1.1431173397567393479
1.1428012964206970548
1.1426776728008403161
1.142750924475091745
1.1430282698185001422
1.1435278943720952327
1.1442375806861029286
1.1450723024863778132
1.1459005303081950533
1.1466242061827309762
1.147229839994498457
1.1477713025738427444
1.1482983624201181794
1.1488054453204030736
1.1492370228153137024
1.1495443462957914971
1.149725136761467148
1.1498297638663534936
1.1499328216700894778
1.1500812659657817516
1.1502656513153430851
1.1504260563004868878
1.1504818545335573354
1.1503907794631458295
1.1501887622640885045
1.1499644535546498236
1.1498092081986526214
1.1497725206936337816
1.1498456248822759296
1.1499751691659980679
1.1500863097239863997
1.1501202408406832056
1.150067133502677752
1.1499638640438967219
1.149870441043399083
1.1498354614614643143
1.1498688846140761033
1.1499508557274473741
1.1500587279937262153
1.1501845687007985486
1.1503294603511520222
1.1504809615041058368
1.1505989472543201035
1.1506294841737314538
1.150537838666536361
1.1503421034424299307
1.1501091008620247802
1.1499138629152423352
1.1498012121013898579
1.1497655494907497165
1.1497703122189077973
1.149781882861257376
1.1497851156429008679
1.14977967081333321
1.1497639309507972083
1.1497224636210885418
1.14963132655679523
1.1493637279077324465
1.1492154543332195882
1.1490349901237999486
1.1488632803816405392
1.1487299938457251613
1.1486383656093583916
1.1485651797648168682
1.1484794374517854898
1.1483629989627681667
1.1482224696411107434
1.1480859202295918831
1.1479904136824690131
1.1479635500948133231
1.1480079782043943748
1.1481006587288231646
1.1482044928900410063
1.1482867509403602568
1.1483334635375681554
1.1483537640552710091
1.1483672122855039799
1.148390527229555369
1.1484315381201777306
1.1484913341368137019
1.1485691410168366033
1.1486652436714377412
1.1487821490269494173
1.1489216927133927282
1.1490812777872345674
1.1492496743509066359
1.1494058822676103127
1.1495241349182940827
1.149579892543072912
1.14956020966931316
1.1494743496200234834
1.1493529561752531265
1.1492360379772994516
1.1491570580003163116
1.1491302024057710174
1.1491481095534687995
1.1491915948124948876
1.1492437246792850392
1.1493011699431296968
1.1493710172539826075
1.1494659925393739819
1.1495933719879012358
1.149747137540217734
1.1499124135296994176
1.1500721538635676477
1.1502126328766688612
1.1503292334603898439
1.1504286902621492228
1.1505237556533596255
1.1506234126031011922
1.1507253848899683391
1.150817849095701062
1.1508777919052772809
1.1508872759522916773
1.1508408782683210436
1.150753046368149457
1.1506537611568896651
1.1505731858516019539
1.1505286008737685144
1.1505201602800563254
1.1505332285498002243
1.1505491751071648121
1.1505570434848069183
1.1505611753883120407
1.1505766555778380589
1.1506184826975893731
1.1506910601336506339
1.1507830722384311262
1.1508716152560154455
1.1509341104987362847
1.1509586161411622385
1.1509464759650451793
1.1509078666538767877
1.1508531789165179493
1.1507860077682694477
1.1507024364554510054
1.1505962819382797857
1.150468446184471194
1.1503320325237769151
1.1502100156380805629
1.1501256968632225242
1.1500929621918347667
1.1501101802595354862
1.1501600562465801314
1.1502184131018469149
1.1502644016693510665
1.1502866055519291866
1.1502872173793252664
1.1502781330985567543
1.1502745248928314403
1.1502887897191467204
1.1503261906469570697
1.1503841891201775915
1.1504554018976038687
1.1505322118443306323
1.1506100878965275225
1.1506880593646915401
1.1507664939805539728
1.150843310064551428
1.1509118107527243069
1.1509608863655713673
1.1509778444135494446
1.1509538779601951042
1.1508893951561838254
1.1507965615375885804
1.1506968220204365494
1.1506143466068008419
1.1505683010857867821
1.1505662868981350044
1.1506033164224023224
1.1506671448746899067
1.1507438683780712996
1.1508240784509193855
1.1509048500393310732
1.1509866506239188055
1.1510701730955597011
1.1511494358363509871
1.1512139211157992325
1.1512504205380917899
1.1512501549388425293
1.1512115164740395201
1.1511413338957288133
1.1510485795706533185
1.1509442873039696931
1.150832204957046967
1.1507159026642910238
1.1505963741273728118
1.1504733012192862596
1.1503517095271909021
1.150243461145900481
1.1501598366171672527
1.1501077878635446172
1.1500841853421077676
1.1500798508487937166
1.1500785240036508483
1.1500645770486555008
1.150029048037899182
1.1499701581291879027
1.1498958587713337121
1.1498171288744205576
1.1497449079893546919
1.1496841460334001894
1.1496317911111186838
1.1495809092251714212
1.1495197609181126985
1.1494428093087463161
1.149353286452154066
1.1492625208256244118
1.1491869328907087233
1.1491389758785326425
1.1491245212445391211
1.1491422637823704989
1.1491834195533701113
1.1492328897922723385
1.14927270372269974
1.1492889589829553554
1.1492762881968214828
1.1492378674082386336
1.1491836415478691169
1.14912811469891607
1.1490869653063457978
1.1490745562021720261
1.1491016078714701987
1.1491736483678838265
1.1492880832132357227
1.1494322391688278628
1.1495850216501239949
1.1497199627826883983
1.149808567068763443
1.1498273576355915182
1.1497658892611861692
1.1496317024975548637
1.1494505976018083437
1.1492595661944366991
1.1490974196839525145
1.1489949452637202576
1.1489645205853578069
1.1490010659921841008
1.1490809330519948794
1.1491718844712988101
1.1492455969253980719
1.1492842890287766622
1.1492872886817158129
1.1492677788797933669
1.1492513961754520224
1.1492605470405485857
1.1493077779007518924
1.1493999307161884005
1.1495212227863471632
1.1496464761578526481
1.1497549417423500451
1.1498320107615351837
1.1498678399640429593
1.1498613837112496849
1.1498181192908427661
1.1497453525023124676
1.1496479216245576449
1.1495268612635682892
1.1493826990146860378
1.1492186240419102194
1.1490434616538767187
1.1488718898166290217
1.1487242248464983874
1.1486181595850171178
1.1485663512685124754
1.1485716847719913414
1.1486254769287722599
1.1487086446319025868
1.1487972842221609859
1.1488704762753445543
1.1489156967113696162
1.1489303536328532296
1.1489212059047735348
1.1489017471082523247
1.1488863069963872743
1.1488860710777122343
1.1489077264728719818
1.1489535309042586686
1.149022359144578953
1.1491110883701505241
1.1492160336996566361
1.1493334993306700831
1.1494581032480593041
1.1495810350086710372
1.1496906563408106905
1.1497751287401356546
1.1498247814624491525
1.1498348916295015876
1.1498072126986109698
1.1497488281565453327
1.1496702942179120033
1.1495832002279162687
1.1494969500420757491
1.1494164755613807127
1.1493421852125620397
1.1492713860547612015
1.1492003041473803915
1.149126492180986947
1.1490499275614498575
1.1489724589340726268
1.1488971706278514606
1.1488277184842197176
1.1487673617172904361
1.1487183599054566763
1.1486814752700851283
1.1486552249292634187
1.148636130336771366
1.1486195765678748337
1.1486004188238982948
1.1485732396643160147
1.1485325065440832315
1.1484730487217680306
1.1483916895350592124
1.1489395702481073336
1.1469328668870337751
1.1465478877094024135
1.146080326843215591
1.1446642460469516056
1.1448961097752337057
1.1460949417640100556
1.1469823662695097788