/*--------------------------------*- C++ -*----------------------------------*\
  =========                 |
  \\      /  F ield         | OpenFOAM: The Open Source CFD Toolbox
   \\    /   O peration     | Website:  https://openfoam.org
    \\  /    A nd           | Version:  12
     \\/     M anipulation  |
\*---------------------------------------------------------------------------*/
FoamFile
{
    format      ascii;
    class       volScalarField;
    location    "0.0058";
    object      rho_0;
}
// * * * * * * * * * * * * * * * * * * * * * * * * * * * * * * * * * * * * * //

dimensions      [1 -3 0 0 0 0 0];

internalField   nonuniform List<scalar> 
75962
(
1.1458593172028999074
1.1463332332583979767
1.1468440323997399766
1.1470438663428705883
1.1464687929479984163
1.145890678794081019
1.1459938483918392649
1.1465003363131933689
1.1468161543325912088
1.1468801364055107861
1.146075670871743446
1.144906586056573472
1.1446152385221273207
1.1451720233455155995
1.1457436793219100135
1.1456160557941261757
1.1449240370426283508
1.1445852598681354184
1.1448265609272179066
1.1449802427595174859
1.1447760974586325133
1.1445506427090759161
1.1446435339475757864
1.1449285082049047713
1.1451933177673987441
1.1454324605849834917
1.1456083147885922635
1.1456140870784208285
1.1455593845939548991
1.1455947474268555197
1.1456340064543164559
1.1455377273470863653
1.1453101929188183039
1.1450731670728473421
1.1449202939883731389
1.1447784654507000557
1.1445148375782947525
1.1441924445087727769
1.144073325661759899
1.1443397006255533466
1.1448871449240423104
1.1454914990158171495
1.1459397569203664258
1.146130732099754912
1.1460266777647953873
1.145774788830835389
1.1455395282872988805
1.1453229355808598466
1.1450136697350901116
1.1448281054279312308
1.1449245525049591699
1.1451504389176876408
1.1452527529138321061
1.1451072573158331824
1.1446441005102903077
1.1439837683438986993
1.1434976843031430249
1.1435195906928579124
1.1439887397553567538
1.1445373782623957659
1.144844661789822915
1.1448638631126095699
1.14469262488643575
1.1444034521505119795
1.1440960314027579514
1.143957044717147209
1.1441040206576669203
1.1443792644362846822
1.1444499884416001745
1.1441330567775813698
1.1435637631662287639
1.1430553719777640787
1.1428426473991706303
1.1429509233386132561
1.1432416604428652374
1.1435266711162059838
1.1436493250266701605
1.1435883450091905988
1.1434965573107818138
1.1435277452974690338
1.1437157433072833168
1.1439456306407684849
1.1440611538952056847
1.1440088978699114453
1.1438317126058195061
1.1436182644219317073
1.1434538867317687316
1.1434023713499155139
1.1434844318838681687
1.1436289157561874141
1.1436800971010847583
1.1435582583538930201
1.1433461172923662375
1.1432508499878746289
1.1434573253806612492
1.143974645125644285
1.1446124095586585057
1.1451151709273184043
1.1453379224175561646
1.1453076809780318168
1.145148323112814337
1.1449535403139463607
1.1447052681973970412
1.1443362617595866926
1.1438333979588515277
1.143295755531436475
1.1428765225777151038
1.1426746111551275842
1.1427197970966764817
1.1430056668958818999
1.1435103987038766071
1.1441622651556240253
1.1448364445389214161
1.1453749966115644998
1.145658466801071862
1.1456355089853562657
1.1453196462908223907
1.1447726727062195184
1.1441113743373689804
1.1435049520664473111
1.1431119670102436459
1.1430030183880133254
1.1431363149086046782
1.1434208723496219751
1.1437912179197480267
1.1442153174732980769
1.1446420654952609297
1.1449676222633051736
1.1450648264440557167
1.144855325985638439
1.1443743306628730849
1.1437556715727716927
1.1431687321322892004
1.1427431991177061654
1.1425342919579593026
1.142543471972213176
1.1427634830025279467
1.1431911535790342249
1.143800930619177425
1.144520168087979517
1.1452461217127729576
1.1459076959145444441
1.1465053205914925716
1.1470904912027890532
1.1477081054938820248
1.1483375674395110977
1.1488903223072115534
1.1492722074484842398
1.1494486883831824819
1.1494657371406906687
1.1494297643370103845
1.1494516260709841671
1.1495865983630226825
1.1498005632117198616
1.1499960213144613252
1.1500746410885074322
1.1499948346726802662
1.1497973237590375373
1.1495842726279588142
1.1494672043933593653
1.1495037598896775677
1.1496529578362626456
1.1498022759201282916
1.1498459539939291929
1.1497565281523522973
1.1496012580461651975
1.1494924897401102015
1.1495056846122020389
1.1496392671141943964
1.1498300196553894459
1.1500040411368472881
1.1501229538022115229
1.1501906298491963998
1.1502314262665140898
1.150259572691550769
1.1502656197218255052
1.1502323163171330744
1.150155114544357593
1.1500538307979684127
1.1499640364707095497
1.1499172068838205973
1.1499210273737194843
1.1499567994254129566
1.1499915119334631619
1.1499972295505298536
1.1499636349455355511
1.1499014430853045088
1.1498307882593989948
1.1493119051742597403
1.1492064579510787858
1.1491422626643565952
1.1491223982000717818
1.1491175456159086199
1.1490811244419887327
1.1489809296178454812
1.1488208691199470746
1.1486360703873819133
1.1484704942852645981
1.1483542169370608566
1.1482928301934660631
1.1482696001481138559
1.1482609837698474209
1.1482557267735120643
1.1482571015129234837
1.1482770128579153912
1.1483211902972285667
1.1483867748299110279
1.1484655218525703368
1.1485509329774101772
1.1486426364168973446
1.1487466203232723494
1.148869063090656395
1.1490124085597386294
1.1491740517288486778
1.1493490847674603383
1.1495294703268357228
1.1496979592915688162
1.149825381594457907
1.1498756126390041743
1.1498224322273267184
1.1496682596668992282
1.1494525407351485757
1.1492406759686377704
1.1490971527431825816
1.1490592610846932509
1.1491236147932535339
1.1492527998091826014
1.1494021580196684962
1.1495375963029883515
1.1496620341787324726
1.1497968592182248315
1.1499582135735608723
1.1501501065636396959
1.1503585372784477237
1.1505561711261012015
1.1507144454355533458
1.1508163979877286121
1.1508634801192110242
1.1508746830782865533
1.1508768557557309542
1.1508911757323461167
1.1509215361479916417
1.1509553030433099519
1.1509668315272585382
1.1509373586589715099
1.1508651439632342495
1.1507702460566175962
1.1506854235365349126
1.1506398569273470489
1.1506477514460684564
1.1507034833959550735
1.1507865868413418298
1.1508745305705991857
1.150952641701687984
1.1510163944587086249
1.1510694996787365074
1.1511151669415289334
1.1511493113678328282
1.1511653003700632603
1.1511589526868202249
1.1511336675426493414
1.1510994204342521741
1.1510674331264192372
1.1510426640521973507
1.1510193288130263767
1.1509823787572859288
1.1509173390210265531
1.1508196078089718561
1.1507014010384020164
1.1505887154157963259
1.1505115266151633158
1.1504914478815151391
1.1505310282818588252
1.1506116438499078836
1.1507001807803023397
1.1507612883139806126
1.1507708498837208033
1.1507242091219336277
1.15063555672161133
1.1505319699036791192
1.150444906514215937
1.1504001819612887925
1.1504134618007195723
1.150486452340194754
1.1506102897183909661
1.1507663281346425244
1.1509322346379644575
1.1510881656585194577
1.151220312299712667
1.1513217186037987272
1.1513884874607998032
1.1514178587941106269
1.1514060136409021151
1.1513488488797192222
1.151245854270875224
1.1511052699230068797
1.1509460555953663352
1.150794712015227983
1.1506792984485938458
1.1506212499272501226
1.1506293581826358974
1.1506988794446002533
1.1508134438416293133
1.1509496838218979953
1.1510826734983754527
1.151192143185229888
1.1512642610599173043
1.1512931871446339116
1.151278388365599703
1.1512251172135363753
1.151142630658938959
1.1510415022034086174
1.1509311785047993126
1.1508208241593178567
1.1507102981278414244
1.1505984270111744294
1.1504785273109949806
1.1503437470740984772
1.1501955824132272799
1.1500398333416430585
1.1498888727313134606
1.1497589896947675303
1.1496632336755385762
1.1496039198266985171
1.1495713732715406863
1.1495483170008045093
1.1495172422363502118
1.149467455407183758
1.1494000146023526376
1.1493250915775081733
1.1492586450175577006
1.1492140087586257824
1.1491952534788800744
1.1491981995570486053
1.1492142371468909712
1.1492341054690564661
1.14925023974093099
1.1492614301206833805
1.1492728965231475691
1.1492900210567087438
1.149313116740402485
1.1493364691138652223
1.1493514676167826405
1.1493508075718588124
1.1493313562655291804
1.1492950293937862494
1.1492485355892725352
1.1492005190187022379
1.1491596018492469256
1.1491323579218013506
1.1491235401141015604
1.1491371477264737955
1.1491765321823226298
1.1492439251977433212
1.1493383716867591193
1.1494539729506243475
1.1495784258816055257
1.1496917828884918311
1.1497717379936993609
1.1497971082601869952
1.149756769503732956
1.1496517333751121726
1.1494985014031964266
1.1493231165138870775
1.1491577925767375579
1.1490289271549358752
1.1489537740428408252
1.148931950485675646
1.1489505074275956353
1.1489861562977243814
1.1490148174658207925
1.1490211584023326541
1.1490000099930433031
1.148961914460584044
1.1489242031758357676
1.1489054397090536774
1.1489165203262852177
1.1489644001781886828
1.1490456636843755511
1.1491435277842578788
1.1492437136417068544
1.1493355473640127773
1.1494100120718864222
1.1494607058494359375
1.1494842189913303532
1.1494802692954102508
1.1494485907697551408
1.149389650662986595
1.1493041613934631417
1.1491932841483127881
1.1490633012077220432
1.1489257621757940075
1.1487975196481783335
1.1486951761041410691
1.148633031216551581
1.1486197877613444351
1.14865166663942464
1.1487175714511066449
1.1488018135606723469
1.1488870798146750829
1.1489602029246916981
1.1490160864626128845
1.149057145225170995
1.1490911768876297394
1.1491282395345858713
1.1491770870924504777
1.1492423553401973635
1.1493241516725614115
1.1494197549981703954
1.1495253022925924213
1.1496363725283780255
1.149748265907624134
1.1498556941387108044
1.1499517605760873895
1.150028343711079204
1.1500778483149833864
1.150094749204085165
1.1500768227952329337
1.1500262959947205044
1.1499499169066351723
1.149857640515249857
1.1497602380077807105
1.1496670459665512265
1.1495838202525718863
1.1495108858605749269
1.1494440422505769472
1.1493773357519825318
1.1493054318493942656
1.1492256935919680227
1.149139769827198565
1.1490531013667240057
1.1489725960699335161
1.1489041345052448673
1.14885071135465755
1.148813079929814629
1.148790650819924597
1.148780645309846582
1.1487772659826125388
1.1487728890835553486
1.1487598721463536666
1.148731893819951555
1.148683542083422271
1.1478044833245044654
1.1467960502114113996
1.1454043090199375055
1.1463080836616119651
1.1467837644674723219
1.1462737551996731167
1.146310632241874794
1.147436311504271611
1.1476383812786856708
1.1471216482320401031
1.1463810248813106618
1.1454180398178683831
1.1450942177372041009
1.1455986808644611497
1.1461853612164729643
1.1463133617766709804
1.1460113648114067519
1.1455616205640692939
1.1451223626712156989
1.1448225770596294204
1.1446834105095602396
1.1448073065924952996
1.1452462576461446275
1.1457308505695782408
1.1460387779102565453
1.1460664340901014491
1.1459506423395775521
1.1457828137926771017
1.1456504991717548769
1.1456085241931943663
1.1455647711652749976
1.1454373003462146041
1.1452764596780657946
1.1451799119817396289
1.1451893271110207273
1.1451942096702432128
1.1450390625472670614
1.1447013292912173732
1.1445019671714116161
1.1446947965196911934
1.1451805256828551105
1.1456435887023013187
1.1458488212269251072
1.145796330765239901
1.1456294080731377338
1.1455069439639304907
1.1454066861521405851
1.1451300601349632124
1.1447501852696508884
1.1445729124646462083
1.1447688508265030372
1.1450853630561694807
1.14516733018222161
1.1449234983928848752
1.1444722710327652759
1.1439701757782587688
1.1436539675657544368
1.1437332949007263938
1.1441497232168231779
1.1446221780792609213
1.1448843674626414391
1.1448679763660269959
1.1446150163620061324
1.1442332226440514731
1.1438807288270167462
1.1437626491465944234
1.1439932911053725118
1.1443822375032011163
1.1446061509064675565
1.1444368131250084453
1.1439146003394062845
1.1432800448970410478
1.1428144956184054237
1.1427245860267201127
1.142993069938424755
1.1433549771519095906
1.143522274560766494
1.1434298263388293915
1.1432802215268058621
1.1433257735254782617
1.1435806963873826891
1.1438480737878371496
1.1439398139610079674
1.1438216025003620224
1.1436077245537576985
1.1434335316740062982
1.1433701834300740163
1.1434301255608478876
1.1435520291637966128
1.1436648253917542917
1.1436994567197837913
1.1436271911052326988
1.1435135817824220172
1.1434974647749212018
1.1437250853911531401
1.1442259356102726375
1.1448504610204526255
1.1453375490567947459
1.1455175742495677937
1.1454228601841338619
1.1452014420326679378
1.1449754001884646648
1.1447417909963766292
1.1444242786616405372
1.1439989471865914528
1.1435548289251578069
1.1432076964500419436
1.1430284220780280169
1.1430350664628394775
1.1432459039275522095
1.1436910935955126867
1.1443365861123313554
1.1450447957900207197
1.1456080897162792542
1.1458791736049214194
1.145807090307716436
1.145446024779501526
1.1449018506073516122
1.1443048114295872875
1.143794431853556226
1.1434751592665992614
1.1433851208718910364
1.1434930771458731158
1.1437320623705229394
1.1440423955589062999
1.1443850876116818949
1.1447134517554051758
1.1449479860825690913
1.1449907236600929128
1.1447706892238902476
1.1443007847345572081
1.1436910834863893704
1.1431083712658116625
1.1426884199839828504
1.1424891115203616998
1.1425163682911954055
1.1427702313946599411
1.1432529532436719322
1.1439405694084776588
1.1447450878312555034
1.1455363437592371856
1.1462213966098977469
1.1467950725694651126
1.1473243952257425882
1.1478717022185300767
1.1484316431061849517
1.1489320619666587575
1.1492921372937634494
1.1494837798833026365
1.1495530785864487289
1.1495947227641252208
1.1496991192213976696
1.1498944601937530763
1.1501204115158185637
1.1502686783274136406
1.1502594299166506442
1.1500917324652171203
1.1498451194803058772
1.149637180628917621
1.1495550724083292149
1.1496169596251462064
1.1497637671207185939
1.1498918255533057131
1.149918029529404917
1.1498314522481440925
1.1496951148106120399
1.1496039666276998137
1.1496208403585392865
1.1497419518481117873
1.1499155180267808252
1.1500831125569381808
1.1502179064840729605
1.1503254747029545424
1.150415361372885803
1.1504766813345610466
1.1504783249861254557
1.1503950135451943559
1.1502364328882908051
1.1500510101298664356
1.1499023722158530081
1.1498289597861632849
1.1498267287530068437
1.1498590383482003574
1.1498854278137744522
1.1498809774286014029
1.1498457508327426524
1.1497948418546473093
1.1497374657760397465
1.1496673398196040061
1.1493944053265925387
1.1492632654428269756
1.1491251295028852564
1.1490155583440606613
1.1489475511539664065
1.1489025753318147238
1.148842249464848253
1.1487340653695228276
1.1485746297877172939
1.14839162388258198
1.1482281591510568042
1.1481203973973683752
1.1480821683821300638
1.1481003325980774221
1.1481469594292710301
1.1481965207945481477
1.148236545563031008
1.1482690560973105587
1.1483037385000900432
1.1483489298651305965
1.1484077567834030109
1.1484796933401162367
1.1485644130296506216
1.1486646221337308837
1.148783542015821002
1.1489219936367502939
1.1490788269058744842
1.1492486626698530383
1.149421813007041715
1.1495808623210213018
1.1496985905965166896
1.1497448356042812012
1.1497010500074831274
1.1495731090093923576
1.149396557822228937
1.1492261351569483807
1.1491130147222516911
1.1490838735431629924
1.1491320041668287022
1.1492272240517675819
1.1493332066604307062
1.1494331059947497931
1.1495307055592562939
1.1496402498738678144
1.149779875601247614
1.1499536790525937135
1.1501459581094812812
1.150331363290048925
1.1504878167200391914
1.150604866934366699
1.1506863333256522886
1.1507465270371537436
1.1508011897662684397
1.1508587745112013323
1.1509144634204324653
1.1509500782041899303
1.1509456153428476721
1.1508908227819449888
1.1507953415701488442
1.1506859981505004331
1.150596415285308316
1.150551965123242093
1.1505590637878115867
1.1506048274506281981
1.1506670109932894963
1.150725968916039621
1.1507746162947447566
1.1508184702274548705
1.1508676499211165645
1.150927830712465294
1.1509925540428465052
1.1510467674048112663
1.1510767200831810708
1.1510779661502652527
1.1510557067539330944
1.1510205040958234601
1.1509796235252793828
1.1509319063292622332
1.1508673604158912163
1.1507756656799346118
1.1506559277330163926
1.1505214901826616991
1.1503989049994018945
1.1503160465912676269
1.1502912342157982639
1.1503245630746812278
1.1503963224380728825
1.1504754913006451922
1.1505319069997581582
1.150547233792452273
1.1505201628454553298
1.1504653483850262319
1.150406071214025161
1.1503657477035189594
1.1503610344702837054
1.1503981860070451315
1.1504736543243603286
1.1505775655508228006
1.1506977310672570347
1.1508219399305834596
1.1509395011266676523
1.1510425593287054724
1.1511250460672322049
1.1511809059406361566
1.151202744599827188
1.1511842491395687382
1.1511230309959028517
1.1510239375822757246
1.1509005608043025859
1.150773829456102737
1.1506669189031868417
1.150599609065405371
1.1505828643883682094
1.1506166330175651158
1.1506923588493160882
1.1507966821800681423
1.1509147432315622872
1.1510333466271331915
1.1511394082113080017
1.1512227855454755243
1.1512737883843735531
1.1512873206245020086
1.1512620385854810401
1.1512026887314603663
1.1511169338975848486
1.151015776346042907
1.1509048539466200101
1.1507896599043723196
1.1506685681318793435
1.1505381816415181095
1.1503991121333947412
1.1502535707472119064
1.1501108585518695637
1.1499868415024612212
1.1498952803044986126
1.1498415163771567027
1.1498176417890044743
1.1498091494048237049
1.1497968276456986825
1.1497662186698578424
1.1497117015775404347
1.1496385264839159568
1.1495585123405678285
1.149486095217298276
1.1494317945284677762
1.1493962123186558522
1.1493717480728258273
1.1493473411899715053
1.1493167921751581417
1.1492802664535830548
1.1492431146783921303
1.1492142465235095639
1.1492027596416953816
1.1492138930903070815
1.1492443626039026139
1.1492823422623978935
1.1493129582689025625
1.1493245906244657917
1.1493118736704388549
1.149276438308949988
1.1492257063043225251
1.1491703101246175667
1.1491220402831252567
1.1490919667038581586
1.1490898404365943453
1.1491230567869028523
1.1491955642233664392
1.1493045128922332321
1.1494405424090796686
1.1495859314829635078
1.1497163446797613595
1.1498042450912866475
1.1498264495004879571
1.149771779133270444
1.1496456287385057315
1.1494701165168814683
1.149278327308680403
1.1491074287262177389
1.1489876929020681473
1.1489337550443208258
1.1489448313694381465
1.1489996987842858722
1.1490693025142404426
1.149128519613910937
1.1491561642401919574
1.1491492020423947906
1.1491217369957174022
1.1490952850127966745
1.149088423631848821
1.1491199223359027659
1.1491909288657136123
1.1492921229147305962
1.1494096178302315447
1.1495221339341148425
1.1496119727910896202
1.1496703514537920388
1.1496951181852419488
1.1496884293162250579
1.1496528688663176787
1.1495899435003194
1.149499727301480867
1.1493820441007549515
1.1492400551584653901
1.1490806882635438146
1.1489183967279921195
1.1487698284294900475
1.148656059577426003
1.1485921954804834133
1.148583422762738282
1.1486240088876806809
1.1486984863648999067
1.1487867021052713401
1.1488695354462112874
1.148932597588177007
1.1489703785272984415
1.1489877756920117147
1.148995793943797139
1.1490070589406937707
1.1490324221146470673
1.1490785742710241113
1.149146934179205326
1.1492348807423033996
1.1493384578445491329
1.1494539736741371527
1.1495769947681919732
1.1497010195108534614
1.1498170931983613396
1.149914191470792435
1.1499809218894021523
1.1500088983381491214
1.1499954447230911203
1.1499440592496197322
1.1498637155719846348
1.1497668772030726902
1.1496660101620441718
1.1495704664461552369
1.1494851270683597022
1.1494101880108138491
1.1493418994412312184
1.1492749171066185543
1.1492046197315854972
1.1491285391077752376
1.1490474502563390313
1.148965742017278524
1.1488899730788539877
1.1488267036599844051
1.1487803104382576791
1.1487511094608553464
1.1487359712211151486
1.1487301054150100832
1.1487276673277553307
1.1487219143554279199
1.1487055624485495997
1.1486718341464350335
1.148615678627732839
1.1475861439866887892
1.1461255655193931524
1.1452863691499639565
1.1462675239081887568
1.1470226002074226379
1.146623858075328739
1.1468908284678460685
1.1474725632231077554
1.1473519298645866726
1.1472656462164725344
1.1471041705982081282
1.1461311647004985836
1.1452759574431548018
1.1452104479946203508
1.1455925364995764859
1.1463204367384429716
1.1469614379278003646
1.1466793726497295225
1.1456291479263229771
1.144837704976898296
1.144731914345477275
1.1450573014293501384
1.1456042680544111789
1.1462316315059910554
1.1467077791061395242
1.1468519350608068486
1.1466495946196835209
1.1462963264318195566
1.1459972082682707839
1.1458359538585183302
1.1457108387147041384
1.1455595619448344369
1.145491898786150875
1.1456169526368717992
1.1458423210790560365
1.145912452754291655
1.1456011670228696264
1.1450778099652370035
1.1447687366883481097
1.144920537385845094
1.1453512951563771249
1.1456561340917936764
1.1456353123879128297
1.1454341543176824736
1.1452966308597514189
1.1452720271788732198
1.1451639446740622397
1.1448244632861561687
1.1444575599598163507
1.1444091347863032393
1.1447228411586494179
1.1450620857764197691
1.1450547995641759957
1.1446945894336555405
1.1442625683795304425
1.1439262655333457541
1.1437803153832180048
1.1438868972797890944
1.1442117154931248368
1.1445669690772053428
1.1447381879325437826
1.1446297179118740672
1.1443102645936158446
1.1439499255769820518
1.1437383394238618273
1.1438067530377487024
1.1441222030080493433
1.1445119560855068208
1.1447071888135265105
1.1445242118873855119
1.1439678773599890604
1.1432411279838121665
1.1426838839923296742
1.1425994249664217506
1.1429635137601728001
1.1433878429032040547
1.1434968685883768469
1.1432957234332468133
1.1430976971895705496
1.1431964268924192929
1.143519722106590697
1.1437793907449032016
1.1437896223152019815
1.143583207039849281
1.1433477341045379383
1.1432448554228868964
1.1432925783424783273
1.1434088952654344329
1.143505396456274692
1.1435661682307178832
1.1436180236180546466
1.1436768343893959354
1.1437511622020521962
1.1438741902246705173
1.1441187074055720885
1.1445514542146268955
1.1450767401065229389
1.1454767915763590658
1.1456057554177361268
1.145472287232461861
1.1452050605127694904
1.1449103617183298276
1.1446204882853630025
1.1443099714513498277
1.1439761840505431323
1.1436758141720686499
1.1434694522168598052
1.1433878973456539363
1.1434386922455206381
1.1436537457488527014
1.144066669637583411
1.1446494193706528986
1.1452732691519924568
1.1457537943306017603
1.14594574051162712
1.1458181082182230526
1.1454459629291913192
1.1449636481838303403
1.144486681363474867
1.1441032513052653563
1.1438708549117351243
1.1438091927584563834
1.1439065649960189486
1.1441258231513149468
1.1443924984073050588
1.1446369911551717014
1.1448064229707708428
1.1448686025557790469
1.1447823637632188465
1.1445149837126240566
1.144082951461007136
1.1435708191839959458
1.1431051222734154305
1.1427909253746197926
1.1426691896432472628
1.1427442922371990885
1.1430243025682633728
1.143527555430291498
1.1442401416639187417
1.1450748361320466362
1.1458999867077974688
1.1466198768728772528
1.147223783995976687
1.1477664867338397414
1.1482961446912165471
1.1488047274503712103
1.1492355880382199018
1.1495409161435545808
1.1497202627218934268
1.1498255624203146397
1.149931341859953049
1.1500828658288790862
1.1502686857044763791
1.1504275284393585821
1.1504791402209888496
1.150383763972439688
1.1501799953226865547
1.1499573991341573986
1.1498064473417133335
1.1497745363822879927
1.1498509190041521499
1.1499810327399340171
1.1500900341170094965
1.150120503141001338
1.150064583117112349
1.1499604921675745661
1.1498684625732822351
1.1498360782545791192
1.1498718997986401291
1.1499554875793529529
1.1500643257262854746
1.1501909535225292025
1.1503363863732658512
1.1504872520915638834
1.1506025171333196244
1.1506283232937173366
1.1505315684521857378
1.1503324504035017384
1.1500990811246667445
1.1499059776256255194
1.1497962741327303338
1.1497626630653057234
1.1497680508306884484
1.1497794165495784924
1.1497823819011168123
1.1497769202696128676
1.1497609738553038472
1.1497184495027539253
1.1496253509283504979
1.1493657523685050226
1.1492155259810186152
1.1490344746477849647
1.1488635220905865086
1.1487315826885680092
1.1486408245184587251
1.148567419124884692
1.148480578204344571
1.1483629183930863515
1.1482219685409493781
1.1480863533390448517
1.1479930934743702853
1.1479690397198643037
1.1480157602719023302
1.1481094029134493173
1.1482126747484691087
1.1482933603532801126
1.1483384417045394699
1.148357817270464265
1.1483711789870671982
1.148394958274263411
1.1484365698198188976
1.1484968859707218591
1.1485750422805387494
1.1486713461148201354
1.1487883447253017799
1.1489278374734546162
1.1490870868813545247
1.1492545935482383346
1.1494091827640509074
1.1495250974040733816
1.1495780401478792321
1.1495557421566346967
1.1494683135557770548
1.1493469355549563726
1.1492315721961905428
1.1491550518489441757
1.1491306628282635938
1.1491503393646043119
1.1491947547326373247
1.1492474209610510361
1.1493055712819713055
1.1493766619642493687
1.1494733905715772693
1.1496025279661992169
1.1497575134736537361
1.149923223439480946
1.1500826350416522015
1.1502222743176078179
1.1503379769952133405
1.1504368578239458909
1.1505317286498040197
1.1506314017859295973
1.1507330264927462249
1.150824233386087414
1.1508820887904012142
1.1508889475799295443
1.1508400973210843876
1.1507507662135945115
1.1506512582462220529
1.1505714061009701954
1.1505278653514590115
1.1505201429560851789
1.1505332787580946352
1.150548757858744775
1.1505562612685327206
1.1505607008681328907
1.150577360322429632
1.1506208514408895471
1.1506948470587818889
1.1507873153617735884
1.1508750557433804484
1.1509357850251309419
1.1509582042101338395
1.1509442312483519899
1.150904314302657161
1.1508486945708393812
1.150780634572229344
1.150695965411390187
1.1505886034808685547
1.150459889666384683
1.1503234294966120377
1.1502024120225757819
1.1501198950301279034
1.1500891820078051886
1.1501079066462749356
1.1501582496332491967
1.1502159972525942688
1.150260642155872981
1.150281374370655918
1.1502809921213774658
1.1502716894104871859
1.1502686183771215767
1.1502838784284410423
1.1503222881398866839
1.1503809354329253001
1.1504522822457754483
1.1505288220893969964
1.1506062676488584273
1.1506838936268219964
1.1507621451731970819
1.1508388196009478044
1.150906985197734933
1.1509553193608599297
1.1509711098403880847
1.1509457861906726706
1.1508801845239309269
1.1507869261532608363
1.1506877235347463539
1.1506066988817875707
1.1505626608888193108
1.1505626762218768011
1.1506013436110384962
1.1506662817870167981
1.1507436863144808736
1.150824410534621256
1.1509058157610998485
1.1509883879111730831
1.1510725968389785567
1.1511521732409044638
1.1512162963321992404
1.1512518602121877276
1.1512502211761872495
1.151210281818124237
1.1511390449924998602
1.1510457621692005148
1.150941317384332141
1.1508292928811836298
1.1507133095373056619
1.1505941890321333965
1.1504716825495384658
1.1503511156660983783
1.1502443997993163638
1.1501626312867256896
1.1501124086811547187
1.150090210134692148
1.150086645982237421
1.1500853269294615266
1.1500709112856828398
1.1500347043483793996
1.1499754715192032073
1.1499012974002531529
1.149823222014032309
1.1497518255976124646
1.1496917814407070502
1.1496396052161064194
1.1495882209875327717
1.1495260367510866661
1.1494479974273801304
1.1493578021926977861
1.149267164678723141
1.1491925721776814484
1.1491461665173161588
1.1491335028242575245
1.1491528756673548006
1.1491950724128376926
1.1492445914412676711
1.1492833858777802281
1.1492978667737470122
1.1492831225811912521
1.1492428085121126902
1.1491872450154316798
1.1491311780872826009
1.1490903231056592837
1.1490789146794821995
1.1491074680228909877
1.1491812045763780681
1.1492970259464359017
1.1494417568592427692
1.1495939453406134323
1.1497268179659523302
1.1498119802426973735
1.1498263896559142161
1.149760523542352697
1.1496228431375317136
1.1494399902499741195
1.149249260928112415
1.1490894036156658053
1.1489904826317483
1.1489639543924570209
1.1490038026598412557
1.1490855753964537289
1.1491768986464570013
1.149249807795239775
1.149287094931495945
1.1492889964140295955
1.1492691840564575045
1.1492537405653393545
1.1492644915047256493
1.1493138679885883668
1.149407885861323475
1.1495298945781957656
1.1496547014641114171
1.1497620244921933352
1.1498373364783203154
1.1498711409154582785
1.1498627554174452037
1.1498178275089478984
1.149743645699038419
1.1496449101854693264
1.1495225143810239299
1.1493769908002124946
1.1492117742976448724
1.1490360295033108518
1.1488648146390605387
1.1487184855648122639
1.1486145304782273691
1.1485652037377707124
1.1485728507096886197
1.1486282815236423804
1.1487120797897241165
1.1488002706552220555
1.1488721245841040375
1.1489155578282279624
1.1489284750239325827
1.14891807272041091
1.1488980353521240918
1.1488826714795243866
1.1488830162693217662
1.1489055058411028476
1.1489521918460396943
1.1490218846161210919
1.149111429271884699
1.1492170606551812551
1.1493349894509232723
1.1494597282564649188
1.1495822919613505331
1.1496909051559738302
1.1497737847516449339
1.1498214979286371928
1.1498296443935558386
1.1498002988810935854
1.1497407837282147547
1.1496617582624208964
1.1495747676054188791
1.1494890413640324045
1.1494092480929709588
1.1493355269460194812
1.1492650356225229125
1.1491940141823984156
1.1491201560574622054
1.149043637826354658
1.1489664897509890285
1.1488918907348477649
1.1488234653458357926
1.1487643222279897426
1.1487164998367664914
1.1486805765630745402
1.1486549544628776864
1.1486360799008450417
1.1486192968129036451
1.1485994711878266816
1.148571247916403415
1.1485291848325827058
1.1484681992141292373
1.1483852178259283949
1.1488133604859878112
1.1468640038718986851
1.1465470342187360497
1.1460386598236651512
1.1446377246868331135
1.1449149713953226115
1.1461187721363095271
1.1469929961004388108
1.1476543494415645252