/*--------------------------------*- C++ -*----------------------------------*\
  =========                 |
  \\      /  F ield         | OpenFOAM: The Open Source CFD Toolbox
   \\    /   O peration     | Website:  https://openfoam.org
    \\  /    A nd           | Version:  12
     \\/     M anipulation  |
\*---------------------------------------------------------------------------*/
FoamFile
{
    format      ascii;
    class       volScalarField;
    location    "0.0058";
    object      T;
}
// * * * * * * * * * * * * * * * * * * * * * * * * * * * * * * * * * * * * * //

dimensions      [0 0 0 1 0 0 0];

internalField   nonuniform List<scalar> 
75962
(
299.7958097781682909
299.87705557519740296
300.05002091567513389
300.12773136780219829
300.01569581030446443
299.88059814567424155
299.85546270774364075
299.86450556673253232
299.80612557586033518
299.76586759105111923
299.80153281346736094
299.94606909906701731
300.17279604898999423
300.33765535495859922
300.351344574848099
300.244550553294971
300.12527689805142472
300.11510510811314134
300.22155199962486449
300.35248499487835261
300.45325930100926826
300.5179842926929723
300.53536671242289913
300.47470390292966158
300.34974705412651019
300.23721188741876631
300.20839619922162456
300.28357919619833183
300.44888245070177391
300.65393927853011746
300.81399837775916239
300.86564931464050687
300.81327157621973356
300.72606192554417248
300.69109416902421117
300.75171672583400095
300.88563942350702973
301.03639729465879782
301.15003091235939792
301.19133480881345122
301.1462974696066226
301.03668053836838681
300.91051034066731518
300.82252180046123158
300.80362893025977655
300.86191100715126368
300.97057029864720334
301.06755612525341803
301.0877448286339586
301.03666576435409752
300.96176481313295881
300.91136711275794369
300.92372440538491674
301.01264291159259301
301.13742907286012951
301.22833251822646616
301.23740856006128297
301.15926930434716269
301.01964050546200724
300.86991085716800853
300.77538677268370293
300.78232347933720803
300.87365119509570377
300.96927926420545418
300.98930051253154261
300.91848669494885371
300.80876176480751383
300.72933568029759499
300.7239615717057859
300.79933011548871491
300.92823473555665714
301.05834927687919844
301.13298374612310226
301.12096947088878096
301.03539842912726954
300.92261377728175376
300.82938378965064885
300.78157331489859416
300.78212481691718949
300.8116027432769215
300.84283131021476265
300.85593059646527081
300.8494032596740908
300.84173080905634379
300.85320187282678717
300.89135770808002235
300.94722876043522319
301.00421646215835381
301.04844590461993903
301.07055567918467887
301.06472951011943451
301.03719289511883517
301.00499358631941504
300.98680510986986292
300.98867094676705847
300.99696594217294887
300.9863400159421758
300.94055079455017676
300.86968309986912118
300.80770512105965508
300.79243849633587615
300.8430103542268057
300.94790232180309886
301.07498398707446086
301.19028789819464009
301.27306564487247442
301.31549197073331925
301.31308780126641977
301.26311533629046835
301.16836900630852369
301.04152853124566036
300.90293436632452995
300.77779955169495452
300.69014668246791189
300.65931097658688032
300.69315181129218217
300.78295724644954134
300.90382638990104169
301.02382255511275844
301.11586952940837136
301.1626581456100098
301.15634157418037375
301.09830206828979726
301.00294075054279119
300.89854952216882111
300.81917027244844576
300.79045741627226107
300.81975086626835036
300.89631555800627893
300.99954187785084514
301.1090350421235371
301.20850581197953488
301.28510536556768784
301.32685436390397626
301.32252202177352274
301.26511952447907561
301.15599358165104604
301.00416003042016655
300.82084410615732395
300.61433741045078705
300.38980587857179216
300.15451241440280228
299.92134083011313805
299.70627869460162174
299.52218865005625048
299.37255942523768226
299.25108434310135408
299.14810880058064413
299.05759616087971153
298.97971155601777582
298.91950359262347092
298.88218933157941137
298.86797593472232393
298.86924209819358111
298.87343209312246017
298.86936506406470926
298.85268032115055803
298.82783098878644523
298.80532885599114934
298.79596744841751388
298.80429981507035109
298.82422159676053752
298.8422405898745069
298.84623497652614788
298.83336207630009085
298.81180035310512721
298.79522074735018577
298.79348754703016766
298.80771774380974648
298.83155547455305623
298.85653995327061239
298.87729799441598288
298.89267217152655576
298.90376815331615035
298.91100919222384391
298.9129237388973479
298.9078803707995462
298.89626610659485095
298.88152466080748582
298.86890045671572125
298.86295622079569512
298.86519570639671883
298.8736567126228465
298.88427745143411585
298.89313001727310848
298.89801323550307188
298.89904761054373239
298.89764201448832637
299.02443886152019559
299.01356322494058304
299.00695869407172722
299.00499494703143455
299.00463855019302173
299.00099389716109499
298.99063070552904264
298.97391259453627299
298.95452075988822571
298.93707571320777561
298.92473320977018147
298.91807945254936385
298.91539274354107647
298.91424431467851264
298.91349096952779973
298.91350105788694691
298.91550561574052836
298.92003156741401426
298.9266909163372361
298.93459712658921035
298.94314387996769256
298.95242020980555253
298.96315440502098681
298.97601548007258998
298.99117766405817065
299.00825171894899768
299.02665519157352492
299.04559538327322343
299.0633957619882608
299.07711555342842757
299.08297404423916532
299.07807769146398869
299.06245815592512827
299.04006550311925139
299.01771368481621494
299.00227547556499985
298.99785235841585518
299.00426478634477689
299.01764664312628383
299.0332755153352764
299.04746771545245565
299.06041222068029128
299.07440721455128596
299.09120456423079304
299.11127625802811281
299.13316204846819346
299.15394326706592665
299.17055716915842822
299.18116497920919983
299.18590504360173554
299.18681604826207376
299.18680535680653065
299.18819608154103662
299.19147249619260265
299.19530636459251127
299.19691538030804168
299.19418204606756717
299.1867673044851017
299.17667992344729555
299.1673803695481979
299.16205804612502561
299.16238522024377744
299.16793270658291704
299.17663621963771448
299.1861097045458564
299.1947286546791247
299.20192396177014871
299.2080067197128983
299.21329655577062567
299.21735186615831026
299.21943102682587323
299.21902280155484277
299.21640960379875196
299.212600447347711
299.20881316309379372
299.20567082154349237
299.2026971310279464
299.19842046279984515
299.19135336884312437
299.18099272240203845
299.16856909225123218
299.15677412033738847
299.1487568972067379
299.14681736261792366
299.1512617042839679
299.16013915452145966
299.1699373513511091
299.17687418091276186
299.17833405568148919
299.17376213605200519
299.16461334185459009
299.15371217015530192
299.14437158237029735
299.13934039487594418
299.14033008941942171
299.1475912138104718
299.16027513360671719
299.17646945412479909
299.19381374594195222
299.2101557725639509
299.22395483597114207
299.23441549884933011
299.24112680375770879
299.24386081358971978
299.24231071073040766
299.23613027033223943
299.22528857885470188
299.21060456703543196
299.19398632763812884
299.17814123003000759
299.16598002443583937
299.15978471200799049
299.16054064200244511
299.16781369009493119
299.17993103745050121
299.19444353516854562
299.20870033601886462
299.22051402869857384
299.228365537876698
299.23160845092985483
299.23015321206725048
299.22456278754577852
299.21581590441337539
299.20507560868639985
299.19336336710455271
299.18170131192141525
299.17010152356351682
299.15844261476399879
299.14601232516127993
299.13202369304019612
299.11655686785456965
299.10017615615669229
299.08413776441921073
299.070159555056307
299.05967977769290655
299.0530393817643926
299.04929732342901616
299.04670592571790166
299.04342598850195145
299.03831940324397465
299.0314397439327081
299.02380080459965939
299.01702298442825168
299.0124899132171663
299.01062185896148549
299.0109853875383692
299.01268474684042076
299.01476845998973886
299.0164591022318632
299.01761270892058064
299.01875036240767258
299.02042559460630855
299.02267456660445077
299.02490200255988384
299.0262286213641687
299.02592300464579012
299.02370218679561731
299.01981855723352055
299.01500603246972787
299.01017895456584483
299.00620950711811474
299.00372413253398918
299.00313674837218514
299.00477947965248404
299.00895641880225639
299.01589804834731012
299.02555939570288501
299.03742029261792368
299.05030052978219146
299.06218911203990274
299.07078091946442555
299.07380284213928689
299.0700102702227241
299.05937120294368015
299.04351692365162307
299.02508737512926018
299.00745895630581117
298.99344287659795327
298.98494873895577939
298.98205284073543453
298.98349524300522262
298.98691757549619297
298.98981285995307644
298.99055780267701721
298.98856665029899204
298.98485899793593035
298.98119064468613715
298.97945342838960414
298.98074824767161317
298.98575246433728125
298.99414646329995549
299.00419477743469088
299.01440720997129574
299.02371775346659888
299.0312566244978143
299.03641956793137524
299.03887828184906539
299.03862574708733746
299.03562727668531807
299.02989049909950836
299.02142623734283688
299.01028620953371728
298.99705036162595206
298.98288460851449599
298.96952756282246355
298.95873612927397289
298.95201631491886474
298.95033246160255658
298.9533339712866109
298.95989732109313763
298.96842453137861639
298.97713593345434901
298.98466777791975346
298.99049912810755814
298.99489028555547065
298.99865256379263201
299.00282115131778937
299.0082802709725911
299.01547051941003019
299.02435998591755606
299.03463262258048871
299.04586495085163733
299.05759518773061245
299.06935993669441132
299.08065292445337491
299.09080054827938966
299.09898649192939502
299.10442446608857381
299.10651480768945021
299.10498696282405717
299.10003607964523553
299.09234377104428404
299.08295128180026268
299.07300922862674497
299.06352689718778493
299.05511834653026426
299.0477944510446946
299.04106203202752567
299.03422224913913396
299.02663916399768596
299.01798665771644892
299.00843856362797624
298.99862120452371528
298.9893587196917224
298.98138928601588304
298.97514493149219561
298.97080125261697958
298.96833740231613774
298.96743043384361727
298.96739361803298607
298.96732039160963268
298.96633697866133161
298.96370146268441204
298.95883465856576322
300.01538116458982586
299.93867287053853943
299.84578490695383834
300.00179716031004773
300.03261166862654363
299.93218935282311577
299.91496977708976601
299.99250478590039393
299.9113094923608287
299.78674756965875758
299.81505374297222488
299.98844241760815521
300.22735397560325055
300.39261670760265588
300.39526572326974474
300.29208264617244595
300.1984128087518684
300.17844222769366525
300.22588078079508023
300.32302523030671182
300.44290627429285223
300.5536532894968218
300.61221884667946824
300.57057611813769427
300.44268756146675514
300.29991473642184019
300.23758934871790416
300.29995088486401755
300.46717027645621556
300.67067243715217728
300.81890635436013781
300.85464397750564558
300.79314310615359318
300.70791083861621473
300.68453993954068437
300.76324403957971754
300.91942555906211965
301.08504314559411341
301.20890668979450311
301.25746805648060445
301.21145452657168562
301.08096957077509614
300.91547603351045836
300.78807371957049099
300.75575926330981247
300.83122529334434603
300.965519569091839
301.06930344566768554
301.08984200778917284
301.03772365472394767
300.96007997185563454
300.89790244209422099
300.88579202850559113
300.94980309267981511
301.07436467686272863
301.1921219614004599
301.23304622488382165
301.17006189896272872
301.02531948779613913
300.86217592790279696
300.75932093071997997
300.76869019007858697
300.87053122878944578
300.98372630895266866
301.02219959500854429
300.95907705550916944
300.84048233483224521
300.73932318137616448
300.71644957339907478
300.78869066114788211
300.92348823524247337
301.05431670951526257
301.11818620371496991
301.09456879411777663
301.00728731737058297
300.89820076585203878
300.80648919454750967
300.7586170727802255
300.76427224781224368
300.81080925517017022
300.86260815520228107
300.88537422261282472
300.87275253934774355
300.84863772130944426
300.84631821607848678
300.88172389515335681
300.9441617772133668
301.00832150190058201
301.0480966135851304
301.05315868362026777
301.02966756597976428
300.99461087741769916
300.96866775767756508
300.9656456954190844
300.98724211374980086
301.01882443539307133
301.034419965909251
301.01098358451275772
300.95004578498139836
300.88262988321395142
300.84936143764207372
300.87511613568170787
300.95394013481001139
301.05693581555124183
301.15372961111177119
301.22750202769213956
301.27083502928923053
301.27838262644945644
301.24445301881826254
301.16952561988773596
301.06511953618593225
300.94932242402984457
300.84180251422975516
300.76026565770212073
300.72258482289942094
300.73941546959770221
300.80929359381030963
300.91483390242052565
301.02815912449494817
301.1209740153614689
301.17098017618769745
301.16638764074900791
301.10854706336738218
301.01333648644231289
300.90907993200977444
300.8288067221629376
300.79817766002378221
300.82622066046099008
300.90439489071059143
301.01236763877119529
301.12800555820905402
301.23379938419680002
301.31781669663661205
301.3686533837785646
301.37345250235148342
301.32257894613724147
301.2153277877211508
301.06023445215100764
300.87016613900226503
300.65538188541461295
300.42250123472251744
300.18008955448078723
299.94216770593379806
299.72585038234740296
299.54347999867735552
299.39678906710923911
299.27794833368290028
299.17652988123802515
299.08649023690617241
299.00877477595827258
298.94891394072720914
298.91191033722873271
298.89671010658298655
298.89384661181333058
298.88981018056341554
298.87504527415029543
298.84900541123948869
298.81989561084128582
298.7998368504642599
298.79731433401565255
298.81290920088196117
298.83851225886161274
298.86098556656855862
298.86949671885321322
298.86155682542522527
298.84363076568894257
298.82677488276090116
298.81955733078336834
298.82379208531949644
298.83594804464678418
298.85114471454903651
298.86702789232526811
298.88384427721706516
298.90151444755508692
298.91728661273486978
298.92611473289616697
298.92388959922612912
298.91092987208713794
298.89255482184688617
298.87643555510322813
298.86796055466277267
298.86789938411942558
298.87312734055734609
298.87953880047086841
298.88416227254003843
298.88630943537248186
298.88677114911700983
298.88580624602047919
298.88222073834464254
299.03383158901516481
299.02029215457281452
299.00585392529512774
298.99425722770905622
298.98693943697679742
298.9820498278542118
298.97561534906844827
298.96421381534389639
298.94744668914381691
298.92817762734534881
298.91091491848516171
298.89946144403603512
298.89530371477212611
298.89712967935747656
298.90206570644767226
298.90745077405881602
298.91192412632693731
298.91557348969905661
298.91925997245255076
298.92375567845846263
298.92939383561974864
298.93624476245446431
298.94445745225999644
298.95447085201294612
298.96668477952755438
298.98113897112085624
298.99762534890271581
299.01553198328235794
299.03386684828228681
299.05088273425036505
299.06378006870164654
299.06933901072443405
299.06545239324515251
299.05252811436781712
299.03414454659593957
299.01604058533661146
299.00372491350077553
299.00020329500034677
299.00493600927904936
299.01481246919615842
299.02595482593136467
299.03645733901947779
299.04665506834106736
299.05801113135646574
299.07246201968030164
299.09051732460852691
299.11056646707567097
299.12992359176240598
299.14620134401559426
299.15826115595967849
299.16650975452409966
299.17251701639571593
299.17804233061690411
299.18406046638028783
299.19011618904534089
299.19427637305670942
299.19431876936141634
299.18899006649189687
299.17913904098827516
299.16751391982717223
299.15769193558747929
299.15250531810426082
299.15283395737736782
299.15748901545958915
299.16418815354336402
299.17081391654375011
299.17648938541941561
299.18165827868000406
299.18729597829820932
299.1939716981025299
299.20102939403096798
299.20688303037593414
299.2100562733270408
299.21004491224556432
299.20738841579589007
299.20324658535542994
299.19848790658346616
299.19310973337263704
299.18614404669284568
299.17651399903206766
299.16406609717381571
299.15011023898597387
299.13737156976344522
299.12876949943813543
299.12626262408770117
299.12991584734982098
299.13769514516860681
299.14633160012419921
299.15260871396532139
299.15453411677111717
299.15190822979150198
299.14622744555066447
299.13992740615560706
299.13548588479983437
299.13470245057749253
299.1383067361567214
299.14599771584175869
299.15678695291506983
299.16940656702740853
299.18252707321079242
299.19493487241828689
299.20571503952101011
299.21418667482021192
299.21973578984409414
299.221658646562787
299.21938610022920102
299.21271859903259838
299.20217135344893222
299.18913277902612435
299.17575141783709114
299.16443475530104479
299.15727654657501944
299.15547942037039775
299.15909204183333259
299.1672366388116302
299.17848317585469431
299.1912204107056823
299.20399627180222524
299.21538411782711364
299.22429943131402297
299.22971023901732224
299.23111906029703277
299.2283967045806321
299.22209285594362882
299.21301611124602005
299.20236790536017679
299.19074119043290239
299.1787069960696499
299.16608377590642931
299.15244841092567185
299.13782503239235666
299.12240972993163268
299.10715322529574678
299.09374738316046205
299.08370610135051493
299.07767854141104635
299.07488300370880552
299.07384798834851836
299.07254056227264982
299.06942324018143609
299.06388256724375196
299.05642886991211071
299.04829303938805651
299.04096897958589807
299.03554935180426355
299.03207987667275347
299.02974095775391561
299.02733560985149097
299.02417570502706212
299.02027733762582784
299.01621501071258535
299.01293711164157685
299.01141125725865777
299.01220932168018862
299.01503360723859259
299.01869191040384521
299.02166061189956281
299.02274649187933164
299.02140735515109782
299.01781660561857734
299.01272922391973452
299.00721896070274397
299.00246059725253645
298.99955521351898824
298.99947836014786162
299.00298428236743575
299.01050677835212355
299.02180453142057104
299.03597191489609486
299.05122810389298138
299.06506773011915357
299.07460055544316901
299.07732804809091931
299.07197561758380289
299.05899768133213001
299.04062403886166521
299.02028367315193691
299.00188206101898913
298.98868292735886598
298.98232681200926208
298.98286075680164231
298.98817472825766117
298.99526135543050032
299.00150698516921466
299.0046564146732635
299.00430345776533159
299.00182980200833072
298.99944905366277226
298.99901505539810387
299.00246260220984595
299.00992906408447425
299.02040735196072774
299.03247337054023092
299.04396841951461283
299.05305919174111295
299.05888121110513111
299.06126769023046563
299.06050321716890039
299.05688499854920792
299.05056946212653202
299.04152953449516872
299.02968057293645643
299.01526456840281298
298.99892258618024243
298.98213081429452131
298.96661392423857251
298.95458619933447153
298.94768529703026161
298.94650244103445402
298.95048056822696481
298.95803403436883627
298.96707884350115592
298.97562853001892336
298.98218691819670312
298.98617402411883859
298.98810463174294227
298.98913151300007485
298.99056565773281591
298.99352190637301874
298.99866485774435887
299.00609538478596505
299.01550333144973592
299.02646560220023275
299.03860737841017681
299.05149505879023764
299.06449849611425407
299.07673106518222994
299.08706532910821352
299.09430891766032801
299.09756352755090347
299.09651288865200058
299.09148716839365534
299.08340227237556519
299.07355751693330603
299.06326916939116245
299.05353712403018562
299.04488646486612424
299.03732219777140244
299.0304008505887623
299.02349064148523894
299.01603561740421355
299.00773487376869753
298.99867928898618175
298.98939545755973768
298.98067762356788535
298.97333464380960777
298.9679216341812662
298.96452725792676119
298.96283687600470103
298.96231684731918676
298.96229034895912946
298.96196183901292898
298.96051039739791122
298.95716949726153189
298.9514252886989425
299.97734227996056688
299.8188626577807554
299.80098572705605875
300.00356888515329956
300.11167006631745835
300.03348234723944188
300.01349888161456647
300.00538646751340366
299.89017087353397528
299.83238593476835376
299.93213182093421665
300.09168400976096791
300.25829373422834578
300.36450467025582611
300.35499428810584277
300.31098821393106846
300.29544351794777413
300.27071473662226708
300.24685347076950848
300.30375775360334956
300.44581926350321055
300.58958654166679025
300.66152402919698261
300.63454184296091398
300.52756299969541942
300.40368405795783247
300.33968989636036895
300.39007269757871654
300.54767112755951075
300.74338149092585581
300.87799883784691701
300.8927616211391296
300.81446390228228438
300.73034844897978246
300.72268271287771313
300.81723568791676371
300.97226174009313127
301.12934808872216763
301.24287366732249893
301.28058698885774902
301.22131655371276793
301.07296750741920732
300.89259644296930674
300.7678716428044936
300.76215699277702242
300.86842627797824434
301.01018577482329874
301.0972441460426694
301.09241198499029224
301.01924170752442933
300.92419715983504602
300.85080864897975061
300.83618816439610555
300.90870579091085801
301.05676143499164255
301.20165514764676118
301.25337528634361206
301.17444067854950163
301.00340422490103265
300.82794352541031913
300.7371100679358733
300.77114236291470206
300.89637937153901248
301.02496726465994925
301.07132879655375746
301.00739942667195237
300.87436019309626545
300.75683150774068508
300.72600283637962093
300.79939948565208852
300.93119672387479113
301.04316613979790418
301.07913223093123634
301.03778286169728062
300.95256596192069765
300.85764845873251261
300.78115049791898628
300.74896970654100414
300.77259475531968747
300.8372621419700863
300.89717655290138509
300.91269468074051474
300.8837371629728068
300.84499116449529765
300.83787504808645963
300.87849412995745979
300.94731693012300866
301.00725984275430847
301.03013391503520779
301.01492942228338734
300.98233079643421206
300.95733675605151802
300.95533066785026222
300.97771609828419059
301.01547718396921027
301.05557647570662994
301.07657202050336309
301.05951196220263455
301.00723369582993882
300.94534841512552248
300.90858456653069197
300.91768109639497197
300.97105198943802407
301.04917025592982327
301.12961032434668596
301.19761454119839073
301.24376955081692131
301.26048039974762105
301.24116884361245639
301.18577831351325358
301.10185520338660581
301.00285225272949674
300.90483423228579341
300.82538880280770854
300.78154964058546739
300.7860739282722875
300.84039535093597806
300.93218076463995203
301.0356791680391666
301.12183074914202052
301.1677332002563503
301.1620343312984005
301.10797834584928978
301.02239132925365084
300.92924125313777495
300.85583166084541062
300.8252832330361457
300.84977639546934824
300.9242850933463842
301.02987232711683419
301.14302947805867916
301.24411754349080184
301.32006296225114284
301.36122104720584503
301.35818408181410177
301.30473045412048805
301.2015558224413212
301.05620438795352811
300.87769478333166262
300.67111238317414745
300.43940331578789937
300.19042724281149503
299.94037389005325167
299.70975398875236806
299.51415627228595895
299.35815504205675097
299.23626010423890875
299.13996954074275436
299.06326755677179108
299.00452243631872307
298.96462988114029713
298.94250117233576702
298.93272275728304521
298.92648327293278498
298.91446820495201564
298.89238346547233505
298.86432501488309299
298.83943478170078834
298.82635285756254007
298.82864548419780704
298.84341396332757768
298.86316011418347216
298.87858576464174121
298.88279405050064952
298.87486800128380082
298.85956165164952836
298.84454477763267732
298.83639108252526739
298.83734790785837276
298.84603271107596356
298.86021184063406508
298.87864779667410176
298.90057127820148253
298.92344869954661135
298.94175657572168348
298.94882974724515634
298.94066763362582151
298.91959672905801426
298.89365365394826313
298.87194774626567551
298.86021707502095524
298.85846175964559279
298.86291924434681277
298.86969953934169553
298.87654694604651695
298.88259359986017216
298.88683283886842901
298.88696320993625477
298.88008985547503471
299.03012439548274415
299.01483205024919698
298.99600031433783442
298.97792850969807432
298.96377687001609047
298.95394847824229601
298.9460603526966338
298.93689507359391655
298.92456952447696494
298.9097853093568915
298.8954907583895988
298.88557641761025252
298.88295003898497271
298.88790665504996014
298.89803197678753577
298.90939548668870884
298.91846271756281794
298.9236190835213165
298.92568156459333295
298.9266395621360175
298.92830916308912492
298.93169453465191054
298.93713718502340271
298.94472899728367565
298.95455093317190176
298.96680487782634827
298.98157665104849912
298.99851503220889981
299.01642541742830872
299.03312660824565228
299.04592671940844184
299.05221110361907222
299.05052950269885059
299.04175653954365544
299.02905730713285948
299.01665349349241296
299.0081431452108518
299.00512215635518487
299.00689819697964822
299.01147956857306554
299.01705137554290559
299.02319309890640397
299.03057576253809202
299.0404885039458236
299.05368564505153017
299.06955259106234735
299.08655773697154245
299.10294230782648128
299.11729185769968353
299.12915174246029437
299.13927487590262899
299.1490572200748943
299.15948719162082625
299.17034366864737649
299.18034854203619943
299.18699460485964892
299.1882923003344672
299.18357030602595614
299.17429152542536031
299.16361971485338245
299.15480319077687454
299.1497786048053058
299.1486931338569093
299.15010482817507409
299.15208724180399713
299.1534419410368173
299.15452119820832877
299.15678082872847199
299.16168279239377625
299.16961172600133523
299.17934950172065101
299.18850012611108014
299.19473322218357225
299.19685472426073147
299.19507920372797116
299.19055264632550006
299.18443786219580716
299.17716296462953096
299.16833703306662073
299.15729469472205437
299.14408555773997023
299.13002893378978797
299.11748529762667204
299.10886432254835654
299.10560386732532834
299.10752565986302898
299.11281469743067873
299.11894311168646254
299.12374201736434998
299.12603322125983141
299.12606051512938166
299.12507434508364668
299.12465668038601052
299.12609887812283205
299.12995903114136809
299.13599790739721129
299.14348052003032308
299.15163599076640821
299.15998122544255011
299.16835860749813492
299.17671837084276376
299.1847578837173387
299.19173303201904446
299.19649809884526803
299.1977930203086089
299.19478671282831783
299.18760050799659211
299.17755309422318533
299.16690086552290495
299.15816759739522013
299.1533550192976918
299.15326527496262088
299.15738507783254363
299.16442903379032714
299.17291346272918418
299.18179853300597415
299.19070766830657249
299.19962698024721703
299.20858718882954008
299.2169486457662515
299.22363104742555606
299.22729132605985569
299.22707079993762136
299.2228518104383852
299.21539516447876395
299.20565061836759924
299.19476149289562272
299.1830746191402568
299.1709056079426432
299.1583136423751057
299.14524006921703858
299.13222535395931345
299.12056548126281541
299.11150787389152583
299.10583612127402375
299.10324763715794916
299.10276931234142239
299.10266723579240988
299.10127272056007541
299.09764412706812209
299.09161007967867363
299.08404223111665488
299.07610981093068858
299.06895358425623499
299.06304061022427732
299.05797924824264555
299.05296046020868062
299.04669606280003791
299.03859066340186246
299.02901197345420314
299.01920012090124601
299.01093359919423165
299.00556287526512733
299.00372540331818527
299.00529389950099812
299.00934802687845604
299.01430659010219415
299.01829373083955943
299.01986761547033211
299.01848205731891994
299.01447707724844349
299.00888993362769952
299.00322334687785997
298.999099077210019
298.99800169526389482
299.00103899604846447
299.0087825067275844
299.02095665037819572
299.0362236220882437
299.05235540269671901
299.06655720911044227
299.07581580894293438
299.07765519035910984
299.07097851196897409
299.05659850022328783
299.03725240120724038
299.01685818012850859
298.99951440184668172
298.98847360905955384
298.98504286186596346
298.98869430431653882
298.99695572126580601
299.00645785163919754
299.01425272282074275
299.01849963933688059
299.01913359148250038
299.01752873641589758
299.01632439921638706
299.01780731970330862
299.02319746931999589
299.03313821358653968
299.04591454493896663
299.05886249899253926
299.06984290197976861
299.07740492809170973
299.08061228426123535
299.07945184719727649
299.07457482889526545
299.06678627243098845
299.05658953355197127
299.04405445494546711
299.0291792561426405
299.01223994231412462
298.99411879644088685
298.97633222589757906
298.96100846944341356
298.95000899567116903
298.94466314172802868
298.94527082210879598
298.95091202556869803
298.95957663688454886
298.9687601316664427
298.97629085841271035
298.98089671188961347
298.98235795512158575
298.98142684949647219
298.97953761175699583
298.97817775249126271
298.97847572251663451
298.98107453761559782
298.98615393016018515
298.99355576000033352
299.00294169362103958
299.01394327835066633
299.02620940995132059
299.03921791673627695
299.05208144058480002
299.06360035299741185
299.07253515117389497
299.07786148033994778
299.07907151382943312
299.07634163302486741
299.07041715720623642
299.06241704951526117
299.05356865855725346
299.04485614763416379
299.03677247630565716
299.02931376864393087
299.0221349033157594
299.014778113389184
299.00694580665862077
298.99863042529352697
298.99006072535092926
298.98162964899245253
298.9738083021874786
298.96702221239263508
298.96156520812411372
298.95753373655702489
298.95475097799868536
298.95279976474597561
298.95113593991925427
298.94916396988293172
298.94629299355642615
298.9419310074985674
298.93557424429678804
298.92689633260789606
300.33436298587741931
299.90056323185115161
299.8667895516388171
299.95045301464432441
299.86857065078731921
299.88727923999238101
299.96850808291645762
299.96796724229687925