# Forces                    
# CofR                      : (0.00000000000000000000e+00 0.00000000000000000000e+00 0.00000000000000000000e+00)
# Time                      forces(pressure viscous)	moments(pressure viscous)
0.017                       	((2.19663410282012371028e-15 1.51324334341496905836e+04 -2.40865310776638463533e-14) (3.51994034566930347196e-01 -5.47324275232152941684e-03 -3.77212150613444926334e-06)) ((3.30672250342445295246e-04 6.36527019741761506876e-15 1.62918786989794170950e+01) (1.38788842319956985406e-05 2.57276310700342483034e-06 -3.30612316411572557118e-02))
