/*--------------------------------*- C++ -*----------------------------------*\
  =========                 |
  \\      /  F ield         | OpenFOAM: The Open Source CFD Toolbox
   \\    /   O peration     | Website:  https://openfoam.org
    \\  /    A nd           | Version:  12
     \\/     M anipulation  |
\*---------------------------------------------------------------------------*/
FoamFile
{
    format      ascii;
    class       volScalarField;
    location    "0.00542";
    object      k_0;
}
// * * * * * * * * * * * * * * * * * * * * * * * * * * * * * * * * * * * * * //

dimensions      [0 2 -2 0 0 0 0];

internalField   nonuniform List<scalar> 
106891
(
0.013307055941874684074
0.013301124407698251134
0.013289563736474300712
0.013283197799621155807
0.013271033157904300534
0.013264162225162617198
0.013251444116800068992
0.01324423475009229613
0.013231058399876028525
0.013223883725136194658
0.013207200024861196971
0.018720690333203296452
0.018790247168424572405
0.018841136806799298892
0.018876058354617093749
0.018897750514031731728
0.018910240793347122407
0.018916952291532493358
0.018921398718763377672
0.018924759187757000251
0.018926548176807920371
0.018926221726557675151
0.01892177075458927743
0.018907321274715820775
0.018869930784790604067
0.018822058321926165431
0.018777874709272092402
0.018735398171885322277
0.018698290636400192316
0.018663221085779675701
0.018633871814736177597
0.018606180963529676126
0.018583175744114742434
0.01856122026096150221
0.018543357228444735246
0.018524833623046056685
0.01850958600564575271
0.018493897817742032536
0.018480982967104028769
0.018466727435677926517
0.018454013122875940339
0.018439407246949205549
0.018427065110866523712
0.01841299519195362111
0.018399913346532119351
0.018384503284113954541
0.018369702225624406217
0.01835226145598001582
0.018336117444546169708
0.014077170183306867909
0.014062534659971787088
0.01405468611691247649
0.014040580045688491606
0.014033094657914465392
0.014019459925924971852
0.014012312300325424977
0.013999121060423759533
0.013992234620000935236
0.01397934714843976009
0.013972544668119970743
0.013959216160163141415
0.013951833900980530057
0.013937919678260621281
0.013930011326855630191
0.01391509947642323268
0.013906631830158925137
0.013891200877247995848
0.013882864346566070948
0.013863571037109393563
0.019810045189979173103
0.019864444395557467188
0.019901826146707261855
0.019925208075067663699
0.019938034408675198161
0.019944828920481667833
0.019948895107701120066
0.019951863628914028731
0.019953189473789770952
0.01995173439477124569
0.019943840853832481286
0.019919286888565881921
0.019868832326341442918
0.019819125484058213588
0.019770443554551934279
0.019727415515755984676
0.019686663706786788897
0.019651965448391522234
0.019619146108272145224
0.019591252861148537867
0.019564675670773714472
0.01954269737481234212
0.019520437641231763726
0.019501654551332330695
0.01948273511934942373
0.019467323748512427306
0.019451630164977074672
0.019437988579154224372
0.019422403930977594905
0.019408762951943610287
0.019393530821591994928
0.019379551738222984547
0.019363361700243497676
0.019347770373032417701
0.019329434440506457205
0.019312437550049427887
0.014794090446231974306
0.014778225587437056332
0.014769871901705507525
0.014754361283184131218
0.014746188183679131284
0.014731016721901623104
0.014722984956449748986
0.01470795427561529152
0.014700075578778660362
0.014685332565164653518
0.014677552833809020053
0.014662416650653943215
0.01465407529867141477
0.014638285142364823935
0.014629350788170769268
0.014612367888258991772
0.014602798973240330507
0.014585263009277283155
0.014575906555642495141
0.014554239859672669921
0.020807333540592179433
0.020879453764662238985
0.020936139320691327104
0.02097893865916537412
0.021009710850118920589
0.021030718134295113553
0.021043537953921904321
0.021050647394644451255
0.021054201706779501063
0.021055233881409087665
0.021053786078160462159
0.021046001120496447834
0.021018654427795407935
0.020959819012439082075
0.020899128430602566947
0.020844580686337314812
0.020792937451171999985
0.020748373109559514749
0.020706787844595148096
0.020671634710458193507
0.020638618775946755701
0.020610972373867199325
0.020583290226840269405
0.020559812318095314204
0.020536418983869316607
0.020517092181161142306
0.020497650819263222438
0.020481061854369535247
0.020462886420063435
0.020447261416131366774
0.02042978911142444981
0.020413617133379028529
0.020394828825227719754
0.020376798332855373258
0.020356092306360311361
0.020337258519464811862
0.015530476477543360414
0.015521621643246366964
0.015504697441139799613
0.015495627657180217895
0.015478669501210186657
0.015469616252472274259
0.015452515255248050127
0.015443435045152102691
0.015426514454614709271
0.015417611795470607255
0.015400636478684276778
0.015391447436244579464
0.015373850856278589369
0.015364025144887100485
0.015345053543167869181
0.015334538727937781222
0.015315212895798754542
0.015305017299222284724
0.015281206373951370173
0.022193308972005627161
0.022244552049751585565
0.022275906037251644309
0.022293159705931694936
0.022301399566783241396
0.022305251166214346004
0.022306673956578575851
0.022306388073999365573
0.022301929211695256661
0.02228560243672512986
0.022236083242041203289
0.022164932893515058854
0.022093979335926303836
0.022028570368702926618
0.021965597129995836911
0.021909820059966528261
0.021857690840221950107
0.021813273109721212362
0.021772381515533040242
0.021738337491249284245
0.021705336545732093617
0.021677147742300544725
0.021648986269513604414
0.021624631154746609685
0.021600345773851316322
0.021579872270072592705
0.021559083446445800186
0.02154178804397179417
0.021523296004388622199
0.021506780291842150787
0.021488103289754763303
0.021470359143927648937
0.021449356561241052915
0.021429882385083181412
0.016339206455357194875
0.01632062159069494478
0.016310905263364067208
0.016292404000373954254
0.016282374887884573655
0.016263491545400299287
0.016253243240198837066
0.016233962290452038507
0.016223720706049427759
0.016204646882332762042
0.016194721815458917868
0.016175726911833328975
0.016165631086261008503
0.016146126825036462987
0.016135479603290519418
0.016114749505239635979
0.016103480188135649298
0.016082486964686549397
0.016071610583554288287
0.016046023519663835805
0.023267408802990476036
0.023334514304879250962
0.023382125421130335596
0.023412644529843814473
0.023431014209742955651
0.023440119261954942692
0.023444442436359593657
0.023445745573191397598
0.023444713218474019095
0.023439586756892030056
0.023421119675530656379
0.023366258891917002921
0.023296383263054949719
0.023227460514203629449
0.023164217473288926247
0.023103450352395072526
0.023050195105894604602
0.023000904825953221583
0.022959558713768701832
0.022920005831314683997
0.022885898901916335024
0.022852073164720123483
0.022822129803740830861
0.02279167660662956979
0.02276474153582597193
0.022737610597091732073
0.022715103269326953478
0.022692695483015095509
0.022673954688179173006
0.02265391062794831073
0.022635821780796108738
0.0226142413292737543
0.02259427071473339016
0.01715039547686488669
0.017139579969620299255
0.017119228245519684667
0.017108105441584874756
0.017087235127476316926
0.01707585410374495849
0.017054513101339499603
0.017043099304450141235
0.017021838711421745371
0.017010833317545857174
0.016989826687567717578
0.016978841465336309141
0.016957601178337666781
0.01694619988435832475
0.016923901405080200161
0.016912047636920377047
0.016889622163351793865
0.016878159028721650275
0.016850848370549405264
0.024489913028575987369
0.024546313670056024714
0.024584691320062648789
0.024608718675503179346
0.024621519524206731538
0.02462704739451814992
0.024629124620719252542
0.024628870022926376698
0.024626650078564907981
0.024617851126119093957
0.024584497452276598412
0.024518876668189620166
0.024451184803150977087
0.024388309565089898862
0.024327494664288504267
0.024274403939361789695
0.02422500356689549772
0.024183357144897471569
0.024142894188856327958
0.024107793747535674611
0.024072433430145211836
0.024040848591263298817
0.02400809390458435652
0.023978798202960782682
0.023949118198115754846
0.023924626747238483815
0.023900339292870140945
0.023880221761882862441
0.023858616527465927731
0.023839102385615276725
0.023816169069290571425
0.023795070317151480188
0.01802239687754856462
0.018010138116613963466
0.017987711789086268527
0.017975399063793272292
0.017952556590183060131
0.017940233018655996761
0.017917162851587550843
0.017904804562593752693
0.017881665197610811108
0.017869529498830777348
0.017846453386447393152
0.017834483895316593366
0.017811472646510530943
0.017799299571653260515
0.017775728965181300523
0.017763402180500861838
0.017739484440070965587
0.017727378183219979352
0.017698748952432695469
0.02586489065824057812
0.025922462246899546229
0.025962021330890629189
0.025986706336057211614
0.025999076069489899382
0.02600388472622882155
0.026005742046202626888
0.026005401706696858188
0.026002211593856586203
0.025985631201422623726
0.02592765585536601497
0.025848776149656232243
0.025772967499443532463
0.025705101257213439081
0.025641234473455443849
0.025586547853793190077
0.025534652169511284914
0.025489741448407286784
0.025445792156157141101
0.025406887524963436831
0.025367614676443925315
0.025332367703694534666
0.025296322325044324347
0.025265096639976471898
0.025233824361362362093
0.025208025950279624311
0.025181755950155270546
0.025159219294438674858
0.025133230025447584471
0.025109141377055648608
0.018928671108543605739
0.018904289147726974218
0.018890802905026555375
0.018866204601882263781
0.018853085108812100285
0.018828795825184891505
0.0188157267364064823
0.01879092520976335598
0.018777564954866411695
0.018752410400017533593
0.018739399327286781344
0.018714724797846256366
0.018701963003081072123
0.018677162516876601173
0.01866432093071719589
0.018638999646385955022
0.018626201142992696025
0.01859665449653601782
0.027278328226678524165
0.027324096216699754469
0.027352752079938619234
0.027367373273739593886
0.027373013815718140462
0.027375309775965497167
0.027375597988337035255
0.02737336110320552629
0.027360817493997501709
0.027313989392535670958
0.027237338950634109452
0.027168018635205709588
0.027101334037410277494
0.027042812317823027718
0.02698603364382296671
0.026936280608200798697
0.026888332134027435882
0.026846262147487306299
0.026804136350611854761
0.026766023390418516859
0.026727475238385516726
0.026693203999302198698
0.026658129004224675324
0.026627495778303467838
0.02659674034529032477
0.026570572550580422166
0.026542446501616936277
0.026516215003972214148
0.019945542199041134401
0.019920767916364986311
0.019906774283734048753
0.019882209626290364701
0.019868771670310699656
0.019844769561769757399
0.019831471320042537432
0.019806576536444603365
0.019792615034337702334
0.019766868440970399023
0.019752758015178485673
0.019727233616006034644
0.019713993523255233381
0.019688974292294443569
0.019675926815777018686
0.019650405491706376265
0.019637316518508758645
0.019609412597976036419
0.028641496174364958899
0.028667708022216464858
0.028681743489005980668
0.028687828418700610927
0.028690736240413041575
0.028691574686814786538
0.028689852512166172382
0.028679679007252555784
0.028640443854127350248
0.028571649623949490343
0.028508774258636619681
0.028446995254213462007
0.028391330359463787941
0.028336393226032582926
0.028288336766144152323
0.028242386223488694097
0.028203040512136397927
0.028163712377070923565
0.028128737669097590712
0.028092980455580035537
0.028061389001367797319
0.028028260570196431023
0.02799908054170913152
0.027968069077266975719
0.027940553044792617449
0.027910689264164185996
0.027883653502930594303
0.020797067342135457796
0.020769919910130656138
0.020747485309598800995
0.020721227385910923058
0.020699248107335220526
0.020673342940351273345
0.02065062197312975481
0.020623912720352334527
0.020599457534645388562
0.020571256798093039142
0.020547166756261031617
0.020517919171025439384
0.020495713539476736326
0.020466319797516528689
0.020444753163243834654
0.020416001993372744766
0.020392974049867257369
0.029086448657606484014
0.029110594452651752939
0.029123601598684961678
0.029129932199529841308
0.029132711642219748238
0.029133361902778199398
0.029132109519958676591
0.029126661104962481286
0.029105106252941877892
0.029046557458061630919
0.028983729125180230507
0.028921990616327386547
0.028865656787477329825
0.028809850531217106456
0.028760106757943878358
0.028712964430344985883
0.028674166854416410083
0.028637491191978909494
0.028606617181979397679
0.028575211314669508866
0.028547286512491314853
0.028517070025322058952
0.028490666631308284723
0.028461549810095000679
0.028435198808181631064
0.028405690234879672068
0.028379432542716243049
0.020771008366473966283
0.020748918693551960529
0.020708844557564762279
0.020687281615892349346
0.020647198795866014004
0.020625824199829615596
0.020584040817132279871
0.020561096226523800645
0.02051683003398482516
0.020493165454716681662
0.020447962582991658503
0.020424586073432039746
0.020380503202976019139
0.020358087699364063594
0.0203033336452562857
0.020310756502632424519
0.023683709464120534377
0.02369901040094803471
0.023707802770635583167
0.023712275250802865995
0.023713721774802059422
0.023713211527564746761
0.02371076296572888556
0.023702138576411922732
0.023672994114577967928
0.023623555405374696559
0.023572956940039160173
0.023526851395302087605
0.023482177673771927051
0.023442821938298465806
0.023406245156517721528
0.023375769818918472331
0.023348593844654746271
0.023327674223274207782
0.02330824934766185727
0.023292947427715860603
0.023277637740687685125
0.023264915935318083995
0.023250492509237559446
0.023238628757195275987
0.023223914896290113324
0.023210417348125272213
0.023194496005506902436
0.023181162691625921413
0.01656967372315838738
0.016535788512167928777
0.016516476631463300473
0.016482691080300461428
0.016463799039530234436
0.016429533185030386483
0.016410542725718030993
0.016375511120451095859
0.016356769308936938701
0.016321144930180001703
0.016302792028156994075
0.01626779369507180481
0.016250090431687198161
0.016207080944778868431
0.016221667635810524399
0.022165112574065354983
0.022169640361288215497
0.022170870954264461361
0.022169753575160097009
0.022164040536790503844
0.022146625063208833645
0.022097801236235763839
0.022027981676223877539
0.021962433558435016934
0.021898336398570018152
0.021840592918281991064
0.021785929494877728091
0.021738888121922251423
0.021695605297638333869
0.021659204185297993572
0.021626022035938528149
0.021599261286693625245
0.021573783543110725686
0.021552317214825016806
0.021530436472226771594
0.02151084742974323713
0.021489497507257905584
0.021470542243203199345
0.021449611551487047373
0.021430347549002946167
0.021409277217617483924
0.021390405183997887595
0.015618339215799439262
0.01560354278316211131
0.015576545200474089387
0.015561815965395669331
0.01553422740558724896
0.01551933154357262
0.015490857015491547519
0.015475818777275582999
0.015446457104234714852
0.015431353703306605746
0.015401856717623729764
0.015386905183819795523
0.015351762325685554614
0.015348702509660432439
0.021250342255035185868
0.021253995205579474803
0.021254318380126216437
0.021252356902018952611
0.02124720657052827158
0.021234313311606002606
0.02119595522451527686
0.021136615105013072113
0.021077074934511344506
0.021022733166244363806
0.020970855489039333386
0.020926365665215888173
0.0208853879411671009
0.020850880585968338543
0.020818766213389718056
0.020792424624446987497
0.020766906534548944946
0.020745507500872048534
0.020723386518210578505
0.020703570386153440086
0.02068157507433257547
0.020662594235327159942
0.020641744265429341765
0.020623522489031244354
0.020602780275518477182
0.020584417815896031978
0.015048254277875957111
0.015022116850090992679
0.015007884109471372053
0.014981564171442961556
0.014967434092575646748
0.014940540351981326447
0.014926504334886894418
0.014898977188274861727
0.014884905145937446513
0.014856856748962784034
0.014842591532580036093
0.014809769611768077574
0.014804598480530206314
0.020481650976506723255
0.02048127161367303134
0.020478218455393999708
0.020471274250028568403
0.020454172264550391641
0.020407316063953899465
0.020346975946234337196
0.020287982778157791219
0.020234807543739248559
0.020184559689420469852
0.020141611286076520348
0.020102369912804899516
0.02006949815055330405
0.020039058289794350193
0.020013769452005947258
0.019989132580089680885
0.019968069404694022834
0.019946481730944407712
0.019926694163806463189
0.019905335861673013886
0.019886769856733974016
0.019867527877755482291
0.01985046710418114993
0.019831574495820750159
0.019813502314672746391
0.014448437790391904442
0.01443439133369652308
0.014408857703159425392
0.014395359604097296424
0.014369692902231955695
0.014356407607948996549
0.014330192240005470636
0.014316784045508491874
0.01428995380646458889
0.014276288255252704215
0.014244453426187011699
0.014239425017335952117
0.01978318304586395085
0.019777211393679303836
0.019764242450044881144
0.019731552326088679788
0.019670044990221645376
0.019609351022416805083
0.019549485411801532236
0.019495447120975364225
0.019444442214413420328
0.019400754607293190651
0.019361076614896385178
0.019328154061890388815
0.019297981891803244608
0.019273037734182766473
0.019248595247597810598
0.019227682181394364219
0.019206124691062798765
0.019186612971018205537
0.019165492993729223159
0.01914757861677751638
0.01912900696128913211
0.019113353611365992146
0.019095472180340130469
0.019078556725305260283
0.018998584718123674026
0.018990392511178871837
0.018971373394087939074
0.018922246506318751019
0.018862228723285648369
0.018804442832295768101
0.018753024458585780543
0.018704872989029390495
0.018663775340841213396
0.018626572030313384709
0.018596087873354531783
0.018568509814246417222
0.018545888548417006209
0.018523400898965279582
0.018503860796905129138
0.018483572975939614041
0.01846529131790485001
0.018445635281854819154
0.0184289697550611975
0.018411624479109576363
0.018396934316517742775
0.018380296514054216689
0.018364724336906772251
0.018323435296204317047
0.018280296448657105957
0.018213689919042770626
0.018149208915378467477
0.018091599777222557022
0.018037826066154359628
0.017991701221953666084
0.017950346538277078129
0.017916339024379970141
0.017885761913800635875
0.017860450198616189404
0.017835827020496700102
0.01781465716976017577
0.017793373831887001474
0.017774597290467448324
0.017754935547338434459
0.017738331238529303491
0.017721053526052434751
0.017706278663147757835
0.017689899279249490099
0.017675149023435459544
0.017378466510613282958
0.017331842775608521934
0.01729187784874638284
0.017255640598075602105
0.017225479506820452064
0.017197772131754558711
0.017174557562637214614
0.017151779980954042631
0.017132377044598766369
0.01711306497660309428
0.017096291783760621946
0.017078503844513575477
0.017063193790084675572
0.017046761090947232936
0.017032494185333986458
0.017016866347949841098
0.017003181732729157755
0.016594577982591195153
0.016566838924995563181
0.016543428069772020406
0.016520710230521533368
0.016501634198884836818
0.016482995124087036071
0.016467090508905487395
0.016450201379974674354
0.016435353546155884175
0.016418967834829288621
0.016404372762482903603
0.016388547550958160876
0.016374905653803201178
0.015936526224978601191
0.015915935621739860095
0.015895751744599895261
0.015879288147277549614
0.015863333925794694673
0.015849874816337455874
0.015835103330234551189
0.015821911206223709251
0.015806942711404627089
0.015793420933700862141
0.015778439738412926296
0.015765396952489019178
0.0090366308389470823004
0.0094782052334067470184
0.0097646509592232560992
0.0099175889091617855375
0.0099762068910636235441
0.0099876768409378601649
0.0099800259156444161984
0.0099262396952414632539
0.0097389870613492357521
0.0095058330927081814005
0.0093297239208130888083
0.0092051978009044192058
0.0091275623879650703146
0.0090924926756909673492
0.0090840539004467101697
0.0090869054965448704808
0.0091126619457132049945
0.0092160780315902676718
0.0093660963059399807845
0.0094727977446660300426
0.016084487667166500607
0.016581351649607677795
0.016908818308465609764
0.017076273926251949592
0.017136858545270416965
0.017152518643014511707
0.017143217176676189828
0.017065702222107251296
0.016906947811313390029
0.016789592647890330679
0.016714555593562305941
0.01667279826406565732
0.016647598031982197703
0.016631910892269036184
0.01662337946032322461
0.016618566291244068339
0.01661890505112158245
0.016634468448655879286
0.016678697276533479416
0.016719557979685679278
0.016746596911326620816
0.016762162720759362505
0.04499953677336220037
0.045229964349209138275
0.045867482523705191411
0.046366772079332901901
0.046595256637067178351
0.046681665125109093883
0.046698682133703643682
0.046644846645909905647
0.046332280987955470897
0.045682639765253357789
0.045122693178318129537
0.044681809671127697969
0.044361805633045099662
0.044119106010342787338
0.043935178558335639953
0.043780126021668683278
0.043634594612724390827
0.043506817683523782425
0.0434248158878252008
0.043391158793744652455
0.043383621760751250873
0.043402936573615887028
0.043447433576995708737
0.043457041717710628848
0.043428692144722204349
0.043248380322106941276
0.22548325887456330263
0.22908134626095708053
0.23122476734380917329
0.23215922432942653897
0.23243177715231433389
0.2323273413439530255
0.23152868073295401752
0.22941996128943917266
0.22751099100424915234
0.22609518271289508196
0.22513926444794638004
0.2245570747009353052
0.22424080075316474292
0.22407882756074695707
0.22397151816509758282
0.22382431844980080204
0.22360926504850411889
0.22334297060820698655
0.22301547676174365842
0.22266698949740823532
0.22243471470601250406
0.22227665895440473776
0.2220741823932647907
0.22164158031801431403
0.22053939534903280184
0.21889658656921448521
0.21702921694889121262
0.21524419105929312734
1.3201681862909231402
1.3243768913445559399
1.3266584614992749103
1.3273665312295552798
1.3268207261762372529
1.323544055782737594
1.3170401045420940811
1.3112777528635097823
1.3064081333864863144
1.3024545261100421989
1.299285204278521233
1.2967382785689538505
1.2946255843801315333
1.2928505684223743355
1.2912247989426317574
1.2897350867998267354
1.2883430608153656483
1.2871226042681629398
1.2861203947710686535
1.2855244619268499928
1.2851297717309080326
1.2846666599780318663
1.2836753796259077198
1.2811917521670905806
1.2771229882671850664
1.2724308451847512469
1.26743513460945878
1.2627273008063644166
1.2587246830900580274
1.2558235377002029409
3.8441859400300195659
3.833724660889278546
3.8219629984551697355
3.8096635397957849811
3.7975578297458425503
3.7862277787121376704
3.7760713317921901222
3.7672196619169002751
3.7594141634126048146
3.7521801598611554951
3.7450101499612071798
3.7376303160575568008
3.7299427093919681475
3.7219596251259252639
3.713669967351619583
3.7051191744964260266
3.6964149140619499967
3.6877974068993952805
3.6795154294833669617
3.6717069962038815234
3.664291142028630599
3.6570805823369925136
3.6498901603543387751
3.6427122260090252226
3.6356709339344224219
3.628944227460254357
3.6225702814540192698
3.6166138552193634048
3.6109233373551830049
3.6055322704809009693
3.6002946278654106571
3.5950123354309764245
6.341740179830980928
6.3269702719930807078
6.3124859078223849451
6.2982728872804649711
6.2844831178407583039
6.2713267475331671008
6.2589214811463564914
6.2471090641013304889
6.2354616165515848181
6.2235263410256917993
6.2112357703514451401
6.1987417770689221541
6.1862230205580273079
6.1737326755464945194
6.1611508644841030957
6.1484815630395512898
6.135976400084222071
6.1239831221089069402
6.1128399857714006416
6.1025362567273733205
6.0926439447729894283
6.0826288582485412704
6.0721551276097125438
6.0613376321888177145
6.0504516043459428687
6.0397068613046585028
6.0290569018299242643
6.0184163439282594155
6.0076941397589100902
5.9970901802204190645
5.9865795153671408357
5.9761469164128007137
5.9653155812455915807
10.200784594495580393
10.11042305550639675
10.021571688663927446
9.9352257056297457183
9.8522421875763583898
9.7720812721277638957
8.12906008721859763
8.1130551757706719229
8.096661749717652512
8.080115339650172146
8.0638984941945430762
8.0485012926645111975
8.0340722243997024776
8.0202238682085198462
8.0062496166510435103
7.9916502410636116593
7.9762870035542974279
7.9604357154824212373
7.9444596175357817813
7.9284278099382046179
7.9122146637465968766
7.8958376103426584081
7.8797288599542270049
7.8645900795358976154
7.8509008507984789915
7.838465474865759397
7.8264222117183788185
7.8137844675100582847
7.8000983484780350707
7.7855555747094040697
7.7707175076762098342
7.755972497128214016
7.7413140758028511357
7.7266030905232110371
7.7118830757411123145
7.6972930152368199685
7.6829368485493985119
7.6684494016214230783
7.6535849122241339515
7.6380466024295916583
9.8721845660372764542
9.8026235887993085072
9.7329072402369902761
9.6629989616747824499
9.5936972446151003169
9.52530963533474484
9.457839498276403134
7.9363219616877671569
7.9025120209173307373
7.8703239637638615633
7.8404650944654061817
7.8131927782680197225
7.7878563843417891732
7.7629653189846621331
7.7368366156575572035
7.7086003092539936432
7.6786860144070816503
7.648426615586755517
7.6192063684806523582
7.5917926654902796457
7.5664438667383899784
7.5435319573408019522
7.5238338499559951345
7.5080985464719720568
7.4961662819736787355
7.4864537766936232188
7.4765439414785941352
7.4643193687108260193
7.44914270393176281
7.4320542747475064616
7.4147732938034067729
7.3985359497961153963
7.383546385417516511
7.3694123255961256902
7.3558656287684467401
7.3429604800741499204
7.3307140012284417452
7.3187971169124530491
7.3067715220825313338
7.2948030316369401049
7.2837944585919931484
7.2748541845200920264
1.0389700209170021155e-06
1.0451893818944761976e-06
1.0515474579418958755e-06
1.0576545648119644963e-06
1.0613435367819230751e-06
1.0666590755716639953e-06
1.0689898860609368229e-06
1.0728354707113825749e-06
1.0748518889153546638e-06
1.076971787186508673e-06
1.083302479774807995e-06
6.2396253382433934718e-05
6.2359120886493513993e-05
6.2281635304810775157e-05
6.2103655675411735884e-05
6.1638575231143922064e-05
6.0283663032451789492e-05
5.6295088084292649376e-05
5.0464747939247513381e-05
4.4765722453858289038e-05
3.9324521897388178555e-05
3.4235653150154594059e-05
2.9568198574717476074e-05
2.5358702865171890619e-05
2.1617475402738429394e-05
1.8335649086772791162e-05
1.5494335823028407013e-05
1.3061830388653334026e-05
1.1002116223940277892e-05
9.2767887944368712861e-06
7.8504642717251103259e-06
6.6840933856327591517e-06
5.7395985116147556177e-06
4.9798043126549450667e-06
4.3744002111795803216e-06
3.8949228154764526841e-06
3.5186018608956967294e-06
3.2232696999497568713e-06
2.9926483868059454125e-06
2.8103762554253576757e-06
2.6645079481034135072e-06
2.5441365380790257432e-06
2.4448108370742616069e-06
2.3637545893872338676e-06
2.3007252515360258092e-06
2.2508594437710624209e-06
2.2102460581782979236e-06
1.0497342886693321656e-06
1.0533349017846445371e-06
1.0565275144216703984e-06
1.0589349006642041747e-06
1.0603082315456901088e-06
1.0621562406489155894e-06
1.0658103107733480149e-06
1.0712916528712648824e-06
1.0777483270953648374e-06
1.0844105769831530267e-06
1.091118561968585471e-06
1.0971823969864094042e-06
1.1026563990937654508e-06
1.1081606764956228087e-06
1.1115363597098669067e-06
1.1162697931316308452e-06
1.1183459057518145064e-06
1.1218037984860205299e-06
1.1234464922529600351e-06
1.1251531455007762679e-06
1.1302222140624213547e-06
6.5417486602301286596e-05
6.542803592965069112e-05
6.5417070002419416244e-05
6.5341902045756391939e-05
6.5056816629354628475e-05
6.4102581955157759909e-05
6.0999132373033192406e-05
5.4551370931829475358e-05
4.8102891057677643204e-05
4.2028043178312906171e-05
3.6413070851074199035e-05
3.1307357284586217886e-05
2.6736268873475881947e-05
2.2703841249398303925e-05
1.9192908320102043944e-05
1.6173870387436579097e-05
1.3603918613261416353e-05
1.143769866663095719e-05
9.6284286586444705122e-06
8.1343478112297959003e-06
6.9135889042386004509e-06
5.9288328796338926038e-06
5.1439879760840474891e-06
4.5273531106770440263e-06
4.0453760788433315107e-06
3.6703959731653418316e-06
3.3772323470371755984e-06
3.1501200146006214193e-06
2.9738961922670446843e-06
2.8372562968413364326e-06
2.7263372075187806012e-06
2.6335320773088473386e-06
2.5534290559574920011e-06
2.4860996171886490548e-06
2.428382480251323027e-06
2.3792586187591298277e-06
1.1081344249092599758e-06
1.1124535475736997442e-06
1.1160441972583254722e-06
1.1186401656610527616e-06
1.1200174787798307858e-06
1.1215384813183851976e-06
1.1241526974939330825e-06
1.1284474211854843716e-06
1.1337892026055282438e-06
1.1397717590225272874e-06
1.1456033982997697568e-06
1.1509914385734583918e-06
1.155607382055781873e-06
1.1599454739795514605e-06
1.162957104899771504e-06
1.1674446199228553169e-06
1.169556054482021494e-06
1.1732430220657740602e-06
1.1747946934473296174e-06
1.1762766956948581022e-06
1.179782494965146968e-06
6.7277786460564180122e-05
6.7279621962053695345e-05
6.7240997104502832761e-05
6.705809231377509404e-05
6.6405670670398190061e-05
6.4237490782901381266e-05
5.8344216154441868596e-05
5.1407958285164312483e-05
4.4910082747792235726e-05
3.8902416630205956043e-05
3.3438537465465729167e-05
2.8549225254665723528e-05
2.4238599380475862454e-05
2.0488075942936226104e-05
1.7259259798226116438e-05
1.4507594061598182473e-05
1.2183966665023118319e-05
1.0242757997695338236e-05
8.6376998570782879917e-06
7.3272117541189327305e-06
6.2708801290153734219e-06
5.4340468604444857562e-06
4.777473237786534261e-06
4.2632727313110531421e-06
3.8554867727916273105e-06
3.5321678025592430453e-06
3.2795311721941976576e-06
3.0908083622810236822e-06
2.9524931419582654218e-06
2.8507724008184588471e-06
2.7700101276792392646e-06
2.7023194743909582923e-06
2.6421869518507243978e-06
2.5900943685738570828e-06
1.173463817568679289e-06
1.1774472834374921361e-06
1.1803335604442716711e-06
1.1820798076677306793e-06
1.1831394344883513964e-06
1.1844003723214393857e-06
1.1870635664106938855e-06
1.1908237231996618361e-06