/*--------------------------------*- C++ -*----------------------------------*\
  =========                 |
  \\      /  F ield         | OpenFOAM: The Open Source CFD Toolbox
   \\    /   O peration     | Website:  https://openfoam.org
    \\  /    A nd           | Version:  12
     \\/     M anipulation  |
\*---------------------------------------------------------------------------*/
FoamFile
{
    format      ascii;
    class       volScalarField;
    location    "0.00542";
    object      nut;
}
// * * * * * * * * * * * * * * * * * * * * * * * * * * * * * * * * * * * * * //

dimensions      [0 2 -1 0 0 0 0];

internalField   nonuniform List<scalar> 
106891
(
6.6310292485185738179e-06
6.6249503965373663256e-06
6.6174761223396485143e-06
6.611301102881620368e-06
6.6036884462858784855e-06
6.5973980390065152873e-06
6.5896580334954688574e-06
6.583292376423350045e-06
6.5754475535223243411e-06
6.5690989333688360179e-06
6.5603909652682587791e-06
9.9457403542854060314e-06
9.9572940937188921141e-06
9.9638581334045955276e-06
9.9661736231688671404e-06
9.9649802661039729544e-06
9.9613507952656705645e-06
9.9561962906340180883e-06
9.9504498796713488295e-06
9.9444278709911840974e-06
9.9380039741338411461e-06
9.9310325479554505015e-06
9.9229902815216633575e-06
9.9123381455964989579e-06
9.8956846932029671242e-06
9.8762635708182791258e-06
9.8578159122969206214e-06
9.8398239700453261393e-06
9.8232492055042657203e-06
9.8072158169961824037e-06
9.7926914463172358156e-06
9.7786104849768544912e-06
9.7657700829875822393e-06
9.7532161152087226523e-06
9.7417483526634498868e-06
9.7301167873426936853e-06
9.719354246475176066e-06
9.7084855086419389941e-06
9.698355124759451036e-06
9.687883450015221103e-06
9.6778248806918966933e-06
9.6672773105944593983e-06
9.6573304963528946114e-06
9.6469407779648492189e-06
9.6368217787062838265e-06
9.6261060578611024752e-06
9.6155613630861750394e-06
9.6043334714105971765e-06
9.5934485508630643768e-06
7.0414474765069948471e-06
7.0328979042401305099e-06
7.0260509851680936079e-06
7.0176461319701484426e-06
7.0109018115083188488e-06
7.0026279517803476817e-06
6.9959808151199635694e-06
6.9878320877028843165e-06
6.9812637703640598931e-06
6.9732054181302511803e-06
6.9666717310517390873e-06
6.9585176979450334811e-06
6.9518518558815341234e-06
6.9435643676862422898e-06
6.9367784758636739367e-06
6.9282532095298752286e-06
6.9213367604011764655e-06
6.9126914377643786981e-06
6.9058167144502440477e-06
6.8962194272724790576e-06
1.0489795890354290214e-05
1.0496906913824386056e-05
1.04994958812583279e-05
1.0498376384456091696e-05
1.0494466305836137689e-05
1.0488964902233756342e-05
1.0482749620836838509e-05
1.0476255350067475487e-05
1.0469340247001211958e-05
1.0461705349535513668e-05
1.0452395306296800124e-05
1.0438740441286304924e-05
1.0418284714239691777e-05
1.0398019011193377459e-05
1.0378029001882895532e-05
1.0359532225771457266e-05
1.0341641767701598034e-05
1.0325348397432058977e-05
1.0309555433625539709e-05
1.0295063908008473568e-05
1.0280927032861739894e-05
1.0268009546051145008e-05
1.0255029405827298679e-05
1.024297221870695639e-05
1.0230888478241501461e-05
1.0219735101693915564e-05
1.0208518278864216905e-05
1.0197851005130719476e-05
1.018668420681605855e-05
1.017603682354031122e-05
1.0164982815243577986e-05
1.0154268157204076416e-05
1.0142986093273292187e-05
1.0131872617946649544e-05
1.0120049992176595108e-05
1.0108584353459094791e-05
7.4062328116467562807e-06
7.3971188665197677012e-06
7.3898908714009470589e-06
7.3808792640181308307e-06
7.3737095922746905406e-06
7.3647973481768938314e-06
7.3576769112132740845e-06
7.3488150074034127457e-06
7.3417471067566841096e-06
7.332972628165922056e-06
7.3259441309321625307e-06
7.3170867393785424845e-06
7.3099312309024171353e-06
7.3009238422645645326e-06
7.293632081901226693e-06
7.2843385750708286141e-06
7.2768977241522257449e-06
7.2674759186268691528e-06
7.2600976395689390794e-06
7.2496563670382249337e-06
1.1030148100633386737e-05
1.1041585553561003352e-05
1.104889936297919403e-05
1.1052519160935838103e-05
1.105295049261819458e-05
1.1050802117812812909e-05
1.104650014711534877e-05
1.1040703040097585007e-05
1.1033979848417631607e-05
1.1026600064279787515e-05
1.1018575118104797036e-05
1.100890242508542197e-05
1.0994143374813378119e-05
1.0971138525049585911e-05
1.0947635408905027305e-05
1.0925749413199976697e-05
1.0904631446664547848e-05
1.0885374784368766812e-05
1.0866904450333335344e-05
1.0850128398898092503e-05
1.0833922802920165841e-05
1.0819139092366479208e-05
1.080435902336829793e-05
1.0790693718951444323e-05
1.0777060544068434899e-05
1.0764503282593411657e-05
1.075192543112262237e-05
1.0740106429029364318e-05
1.0727883136589859393e-05
1.071634135660501434e-05
1.0704329711553260787e-05
1.0692672007590611424e-05
1.0680340616830264234e-05
1.0668216854586447633e-05
1.0655399256274766825e-05
1.0643077230384244208e-05
7.7802359950597775324e-06
7.7726152856921938315e-06
7.7629815118392465933e-06
7.7553212043690017945e-06
7.7456944798636290738e-06
7.738053284732974055e-06
7.728406949705849595e-06
7.7207738175789250411e-06
7.7111885350732797698e-06
7.7036147637757819179e-06
7.6940315776964711788e-06
7.686400269114960823e-06
7.6766759325213759465e-06
7.6688980752904868459e-06
7.6588426432880505425e-06
7.6509026582392563074e-06
7.6407694087184573268e-06
7.63291986623425212e-06
7.621678478310422624e-06
1.1679731681421992874e-05
1.1685109490301722089e-05
1.1685238253368318838e-05
1.1681654967275631419e-05
1.1675704800710201044e-05
1.1668607844165521722e-05
1.1660882467235704341e-05
1.1652718055113400137e-05
1.164347705804535691e-05
1.1631155584031319409e-05
1.1610201696402698562e-05
1.1583564294813722328e-05
1.1556977169942998532e-05
1.153184621749262897e-05
1.1507359331509205819e-05
1.1484762012179625598e-05
1.1463123567650362943e-05
1.1443510370520621101e-05
1.1424828665119449836e-05
1.1407955397482209681e-05
1.1391370864993398632e-05
1.1376064507322193879e-05
1.1360779331295448711e-05
1.1346502838955072889e-05
1.1332251644268928977e-05
1.1319006883086976781e-05
1.1305688383966778758e-05
1.1293299103479411086e-05
1.1280612810547781849e-05
1.1268461388079212715e-05
1.1255758788409744444e-05
1.1243311489446256826e-05
1.1230017332579449131e-05
1.1217127495686384715e-05
8.1934453434184563301e-06
8.1830970158418858706e-06
8.1749795600314266659e-06
8.1646687972418526197e-06
8.1564887144038908222e-06
8.1460987329805938231e-06
8.1378792180418657072e-06
8.1274059879755381261e-06
8.1192030162503186168e-06
8.1087977069020673448e-06
8.1006891388211819141e-06
8.0903199127991515358e-06
8.082183471881843631e-06
8.0717019952861072745e-06
8.0634412478928048839e-06
8.052666829151846592e-06
8.0442618003281318029e-06
8.0334335170187231971e-06
8.0251385640731236789e-06
8.0131747967556315744e-06
1.2270014830898485174e-05
1.2279183770904872903e-05
1.228318544812656549e-05
1.228267657054370841e-05
1.2278971876906230099e-05
1.2272838681886512802e-05
1.226545604878604101e-05
1.2257286426325558849e-05
1.2248509243764556806e-05
1.2238669997316297913e-05
1.2225372533086702374e-05
1.2202608268995037333e-05
1.2175890363291882949e-05
1.2149429268287918317e-05
1.2124459803190864161e-05
1.2100141030385689212e-05
1.2077789815522731786e-05
1.2056479830409664512e-05
1.2037260409153000188e-05
1.2018525689922518525e-05
1.200123667825912499e-05
1.1984040104470446917e-05
1.1967877039773866711e-05
1.1951590045120123932e-05
1.1936229819340121868e-05
1.1920821629798869669e-05
1.190663304447885787e-05
1.1892484824271646923e-05
1.1879316478905898113e-05
1.186582671435860928e-05
1.1852865790955019741e-05
1.1839000578424521736e-05
1.1825560792216782818e-05
8.6066768765533222435e-06
8.5979887197008951375e-06
8.5869173353103272426e-06
8.578169010216083517e-06
8.5669849843812038374e-06
8.5581877529815833939e-06
8.5469021270051415449e-06
8.5381114888784898439e-06
8.5268618881576195659e-06
8.5181886017286377252e-06
8.5070192793256860578e-06
8.4983666552129005463e-06
8.4871552989453142608e-06
8.4784137151322301997e-06
8.4669527119197495396e-06
8.4581107946555589733e-06
8.4466316252066256376e-06
8.4379005943041326487e-06
8.4252130599772010215e-06
1.2906637359001425463e-05
1.2912533578326653255e-05
1.2913663719792225595e-05
1.2911015194652743478e-05
1.290542015076779531e-05
1.2897918609791756271e-05
1.2889511876576261387e-05
1.2880493116840846833e-05
1.2870964768949376745e-05
1.2859733717204160463e-05
1.2842139407066834872e-05
1.2816099803612062853e-05
1.2789519208289298508e-05
1.2764203162383165461e-05
1.2739427855168686067e-05
1.271667583791212495e-05
1.26948946690615194e-05
1.2675156551343103229e-05
1.2655745737955023732e-05
1.2637760498863525533e-05
1.2619727285515230914e-05
1.260269961823473797e-05
1.2585374660643505127e-05
1.2568959340687155222e-05
1.2552444906306761807e-05
1.2537297191330898385e-05
1.2522217959566192154e-05
1.2508251348125951544e-05
1.2493915881707303261e-05
1.2480144396776881528e-05
1.2465487428551944504e-05
1.245131562697334022e-05
9.0521948733627713511e-06
9.0428338845563318129e-06
9.0309294040668839959e-06
9.0215727015572393858e-06
9.0095818105715896662e-06
9.0002384114849597442e-06
8.9882070185350635365e-06
8.9788700154831703438e-06
8.9668374180953219711e-06
8.9575716284989697475e-06
8.9455718420715011046e-06
8.9363637627370111479e-06
8.9243978074375033567e-06
8.9151552317259230292e-06
8.9030659421804636035e-06
8.8937999262763286449e-06
8.8816392617633603063e-06
8.8724427462139120426e-06
8.8591172464937445084e-06
1.3599485336411665787e-05
1.3605177016615124054e-05
1.3606121007455847428e-05
1.3603157783608993298e-05
1.359696425090824222e-05
1.3588785068113507355e-05
1.357982920093427144e-05
1.3570301100299204732e-05
1.3560043289922281228e-05
1.3546330434387816023e-05
1.3521875844656930078e-05
1.3491922555095488696e-05
1.3462772622886722459e-05
1.3435698972962433604e-05
1.3409672836725010069e-05
1.3386053827810688404e-05
1.336317639402754206e-05
1.334214216240540857e-05
1.3321378435479069836e-05
1.3301954133826633249e-05
1.3282449327178040376e-05
1.3264008775326408107e-05
1.3245364219767277351e-05
1.322798552506147186e-05
1.3210602496081185503e-05
1.3194666593125467925e-05
1.3178626808157601664e-05
1.3163584343467531811e-05
1.3147655044357658288e-05
1.3132233892194849703e-05
9.5116400733275795209e-06
9.4989147562017263714e-06
9.4889359400730915735e-06
9.4761746579867195628e-06
9.466304410134319109e-06
9.4536383747984277336e-06
9.4437973997061007414e-06
9.4310201679187622293e-06
9.4211222458597803785e-06
9.408273612998371244e-06
9.3984795104056748804e-06
9.385769527701742326e-06
9.3760554767953137084e-06
9.3633323385595262336e-06
9.3536151951521108807e-06
9.3407786068112137241e-06
9.3310875047462816574e-06
9.3172079482015107829e-06
1.4319386403549103911e-05
1.4321470737732193128e-05
1.4319052630145711003e-05
1.4312949419245037756e-05
1.4304487617829832549e-05
1.4295147021815911198e-05
1.4285284824329643467e-05
1.4274777763887625323e-05
1.4261613391930419892e-05
1.4239566347179735315e-05
1.420970617605566959e-05
1.4181761535587555646e-05
1.4154513329594721452e-05
1.4129405567288038802e-05
1.410476197188172175e-05
1.4081963911249419097e-05
1.4059650748642836911e-05
1.4038890448515447962e-05
1.4018132869748795122e-05
1.3998439409611133219e-05
1.3978644320574193605e-05
1.3959978227537683034e-05
1.3941111401170813917e-05
1.3923416273920460136e-05
1.3905702735050541588e-05
1.3889205341352588199e-05
1.3872213582483246131e-05
1.3855732195071482132e-05
1.0017691077590753343e-05
1.0004518501791167501e-05
9.9940618334181595102e-06
9.9809604819568600116e-06
9.9706606568946333383e-06
9.9577196726445554056e-06
9.9474736583850662577e-06
9.9343282461247595712e-06
9.9239335280972771199e-06
9.9105929057468005963e-06
9.9001775242236318247e-06
9.8869103103861543481e-06
9.8767299337719645212e-06
9.8636081151715070158e-06
9.8534936226697325675e-06
9.840264190523691199e-06
9.8301557853480419632e-06
9.8163466227946933712e-06
1.5043969174585135939e-05
1.5040419602903678893e-05
1.5033662239414283474e-05
1.5024814203952533949e-05
1.5015134173889752852e-05
1.5004918579376600864e-05
1.4994046368568921107e-05
1.498099135948506687e-05
1.496039558011774055e-05
1.4932050376144284572e-05
1.4905260075360316331e-05
1.4878769932427362367e-05
1.4853890847280783516e-05
1.4829211877037234754e-05
1.4806341938070159207e-05
1.4784033369510272613e-05
1.4763466520743598231e-05
1.4742919249908674673e-05
1.4723527052415863554e-05
1.4703946584403548888e-05
1.46854727710968047e-05
1.4666612333928157587e-05
1.4648799518840548473e-05
1.4630520780965086824e-05
1.4613168188064482419e-05
1.459521313137829415e-05
1.4578009920145832394e-05
1.0488016713633796807e-05
1.0473891851781725839e-05
1.0460964770014879175e-05
1.0447084560309865192e-05
1.0434293709268979691e-05
1.0420524982864075886e-05
1.040756947083332848e-05
1.0393619961892446396e-05
1.0380248122893268262e-05
1.0365940518731129992e-05
1.0352678762828661476e-05
1.0338124232370211826e-05
1.0325354249028391502e-05
1.0310781856450194479e-05
1.0298190236619067243e-05
1.0283800055241909644e-05
1.0270860096545173572e-05
1.5565421735236611712e-05
1.5561091104161075909e-05
1.5553769698824013173e-05
1.5544659993650967311e-05
1.55346038741135496e-05
1.5523984877529689542e-05
1.5512868619955497146e-05
1.5500649992794313147e-05
1.5484183009671717037e-05
1.5457896490323085921e-05
1.5430447643501987964e-05
1.5403308309821034058e-05
1.5377622919486797219e-05
1.5352089535877499652e-05
1.5328179924036203528e-05
1.5304972043372023984e-05
1.5283999408847223617e-05
1.5263606420534843558e-05
1.524477449674321969e-05
1.5225817386316330539e-05
1.5207806041299053135e-05
1.5189203409504312578e-05
1.5171636226754661091e-05
1.5153364501602214508e-05
1.5135841819076660897e-05
1.511748680701899958e-05
1.5100003187677822947e-05
1.0746546707585561144e-05
1.0733371403098719294e-05
1.0715554911914078963e-05
1.0702538908695370556e-05
1.0684743582918201791e-05
1.0671801251403013647e-05
1.0653589584938799083e-05
1.0640263160242484982e-05
1.0621427210621186741e-05
1.0607931865969524477e-05
1.058886882006394033e-05
1.057546401513798529e-05
1.0556706771083426152e-05
1.054357089771125011e-05
1.0522066200452055362e-05
1.0516680304582672436e-05
1.2227267389158996542e-05
1.2222733855203773658e-05
1.221652043371591114e-05
1.2209196690511364369e-05
1.2201096820169698669e-05
1.219249637881080274e-05
1.218340288972658899e-05
1.2172736752810518052e-05
1.2156835040305547085e-05
1.2135709921201733185e-05
1.2114293979138617439e-05
1.2094042789901508024e-05
1.2074168183687574596e-05
1.205566721699183505e-05
1.2037888486022085038e-05
1.2021688502314560544e-05
1.2006348604152907505e-05
1.1992630153462674562e-05
1.1979307997412482934e-05
1.1967056511050510752e-05
1.1954815237683683049e-05
1.1943252608691521611e-05
1.1931267462279591531e-05
1.19199521888991331e-05
1.1907915600865027949e-05
1.1896195531045245653e-05
1.1883856331425070711e-05
1.1872182798017363417e-05
8.349967789842486536e-06
8.33563348150899997e-06
8.3249805636365459234e-06
8.3106884878427428949e-06
8.3001600272184698179e-06
8.2857642096346178524e-06
8.2752280756244550001e-06
8.2606537619087907955e-06
8.2501949211710539739e-06
8.2354837748571795307e-06
8.2251357869388100639e-06
8.210595094330512249e-06
8.2004263122139571605e-06
8.1838764893520153063e-06
8.1818722307201150373e-06
1.1595135486243153867e-05
1.1588275784248893758e-05
1.1580560874456695473e-05
1.1572238824933747252e-05
1.1562725378375167626e-05
1.1550174355224734156e-05
1.1529460410418893859e-05
1.1503237917282603693e-05
1.1478133861806145147e-05
1.1453416378472465887e-05
1.1430366074577566607e-05
1.1408125038732148672e-05
1.1387882688357369704e-05
1.1368631332650065208e-05
1.1351193163629118185e-05
1.1334611608678128269e-05
1.1319727344588085126e-05
1.1305192857080956459e-05
1.1291721160827004349e-05
1.1278152229303816428e-05
1.1265195926234158012e-05
1.1251791487041257843e-05
1.12390266766332758e-05
1.1225756045016646589e-05
1.1212928998499792834e-05
1.1199633798603412176e-05
1.1186917121284905619e-05
7.9466057051142877359e-06
7.9373257699821440149e-06
7.9249507227865811655e-06
7.9157049490824708674e-06
7.9031962588029819073e-06
7.8939241858749205425e-06
7.8812053343123612961e-06
7.8719115223275798742e-06
7.8589806739266880711e-06
7.849683282203909329e-06
7.8367311417110029097e-06
7.8274865629998497383e-06
7.8131113993082955876e-06
7.8069070513745715361e-06
1.1129102879407939383e-05
1.1122347121837722729e-05
1.1114721699213537547e-05
1.1106500626380079599e-05
1.1097445253280384403e-05
1.1086380389540341981e-05
1.106870398928646863e-05
1.1045529780771501735e-05
1.102230616604762362e-05
1.1000447699388320644e-05
1.0979236618069189367e-05
1.0959961575474480905e-05
1.0941611998478708391e-05
1.0924967545592580772e-05
1.0908963904106602067e-05
1.0894488477453011924e-05
1.0880243578522898776e-05
1.0867089877083709002e-05
1.0853757041454468408e-05
1.0841037205731990007e-05
1.0827756209756509456e-05
1.0815275275772644623e-05
1.0802316809280241899e-05
1.0790055720004412755e-05
1.0777141853101866517e-05
1.0764854477005445557e-05
7.6461684129667194763e-06
7.6342207765230026977e-06
7.625305674265755433e-06
7.6133273172227420401e-06
7.6044540211547611433e-06
7.5923451215868242316e-06
7.5835105170343542125e-06
7.5712550871080340375e-06
7.5624252047135576626e-06
7.5500510821757145898e-06
7.541185928107588104e-06
7.5276121779782503756e-06
7.5210715389422959517e-06
1.0710181036557358473e-05
1.0702659686795287403e-05
1.0694440945632996431e-05
1.0685204031624923653e-05
1.0673331919324105516e-05
1.0653725158147195004e-05
1.0630575026907889888e-05
1.0607783234737189142e-05
1.0586519293525906439e-05
1.0566024730773332464e-05
1.0547442364076010997e-05
1.0529835027350293515e-05
1.051390494383889812e-05
1.0498625813888354697e-05
1.0484712800050315895e-05
1.0470986857754004446e-05
1.0458209571519130586e-05
1.0445304088270723774e-05
1.0432876590538113769e-05
1.0420043962233562762e-05
1.0407950875544151666e-05
1.0395692581747766967e-05
1.0384016377280417488e-05
1.0371870102440545149e-05
1.0359943670866157179e-05
7.3442548783322640686e-06
7.3355863092464314328e-06
7.3240058094798999555e-06
7.3154918177912905055e-06
7.3038930368390685141e-06
7.2954484657506062995e-06
7.2837252225250507829e-06
7.2752636824025682978e-06
7.2633981530114698457e-06
7.2548848415743452504e-06
7.2417608565087501679e-06
7.2354556220693903886e-06
1.0318099805855444383e-05
1.030938835060845872e-05
1.0298857907119527856e-05
1.0283214975225281831e-05
1.0260048078320923144e-05
1.0237088479341265366e-05
1.0214351997370882931e-05
1.0193144833124547063e-05
1.0172734768708813205e-05
1.0154240104549892851e-05
1.0136797628391105132e-05
1.0121130567377287099e-05
1.0106196359058010676e-05
1.0092647978953242323e-05
1.0079248110758032888e-05
1.0066785891793119802e-05
1.0054163765078968855e-05
1.004208189877394093e-05
1.0029583013605029466e-05
1.0017930135861014907e-05
1.0006116124555171067e-05
9.9950777783242186856e-06
9.9834676300225301234e-06
9.9721171089058352515e-06
9.9117219027964900094e-06
9.9027052929653636609e-06
9.8908812090904135164e-06
9.8712297650422812487e-06
9.8487112711070566552e-06
9.8267806201887207253e-06
9.8065224825422222832e-06
9.7871254809361424672e-06
9.7695776954391718718e-06
9.7530516677156987534e-06
9.7382899036844397956e-06
9.7242999286667250046e-06
9.7116238292374134337e-06
9.6989997757570936587e-06
9.6871610451365910662e-06
9.6751356030711554231e-06
9.6636392020905654101e-06
9.6517857817413508169e-06
9.6407206480264378244e-06
9.6294880458247284779e-06
9.6189621686485863867e-06
9.6079383280602876385e-06
9.5972011203845470587e-06
9.5351416308936951579e-06
9.517325188854155454e-06
9.4933703196583479265e-06
9.4699622673430191097e-06
9.4483521937743614828e-06
9.427749846752882842e-06
9.4091501106510440545e-06
9.3917998579283432678e-06
9.3763750518119335395e-06
9.3618562869405599192e-06
9.3487293635267222056e-06
9.3357978680618883971e-06
9.3237836241909477871e-06
9.3117489488699911739e-06
9.3003753640123564385e-06
9.2887735344841689385e-06
9.277977083663160651e-06
9.2670139212700336327e-06
9.2567167197711388064e-06
9.2460113969521475277e-06
9.2357410016247489627e-06
9.0836622854534983062e-06
9.0651700023218651788e-06
9.0484268917379171891e-06
9.0326642379496972676e-06
9.0184960385431610992e-06
9.0049766859475319149e-06
8.9926440831529699381e-06
8.9804384676072238541e-06
8.9691278850630773352e-06
8.9578505214863178357e-06
8.9472445001920102237e-06
8.9363779054125468712e-06
8.9261654305226425577e-06
8.9156675614371253235e-06
8.9057461170895631719e-06
8.8954794866047841903e-06
8.8857305996349562676e-06
8.6830005114770349509e-06
8.6697128432955250087e-06
8.6575649465319185031e-06
8.6456077372167619522e-06
8.6346133070649314052e-06
8.6237428657829753105e-06
8.6135964412936173051e-06
8.6031996023239749573e-06
8.5933431109168880244e-06
8.5830921632528449285e-06
8.5733180037597579731e-06
8.563232164085876242e-06
8.5537268525326273869e-06
8.3410337713616568701e-06
8.3298518866251617987e-06
8.3187824373099086107e-06
8.3086945393830244371e-06
8.2987497932268324029e-06
8.2894676819204173121e-06
8.2798509298293777083e-06
8.2706542772878848105e-06
8.2610002746849253642e-06
8.2517319868834815207e-06
8.2420913960894373184e-06
8.2329669910317933816e-06
4.614620503668376953e-06
4.7229041156874501637e-06
4.7905566280983491356e-06
4.8246836759124729307e-06
4.835629280212348869e-06
4.8350818837907460359e-06
4.8299019231628992639e-06
4.8136134031681720172e-06
4.7648367247850465639e-06
4.7041517206427988898e-06
4.6570857543495159137e-06
4.622641098214740864e-06
4.5998660765052618978e-06
4.5877990487257618385e-06
4.5824684816309820272e-06
4.5799950553704927853e-06
4.5832521766199239006e-06
4.6058787685105866746e-06
4.640012936091443942e-06
4.6631697967870297758e-06
6.0435778050538788083e-06
6.1320043733441143263e-06
6.1880796713282495579e-06
6.2144191703287877336e-06
6.221162400555016453e-06
6.219708608406218181e-06
6.2137352915491464062e-06
6.1954755149604092866e-06
6.1623239621074179183e-06
6.1366177902546284654e-06
6.1186227216755493302e-06
6.1067210282287818607e-06
6.0978638065573441716e-06
6.090757894612615868e-06
6.0849677798352891356e-06
6.0798588733571491224e-06
6.0756913359640468729e-06
6.0742837152289258181e-06
6.0781068165422878966e-06
6.0813243511867974894e-06
6.0820160425017881658e-06
6.0806211636987823489e-06
9.930133587003670177e-06
9.9484598783690946676e-06
1.0011277854824580328e-05
1.0058758744591172668e-05
1.0076592352492550088e-05
1.0078962844697456118e-05
1.0073813991437764037e-05
1.0061075799763498657e-05
1.002057421809220261e-05
9.9432280319228234208e-06
9.8752284780345531048e-06
9.8200195303112239515e-06
9.7779955449758752914e-06
9.7444518040907508136e-06
9.7173876562723528866e-06
9.6935162781067341916e-06
9.6706807002278623271e-06
9.649779164110925463e-06
9.6339306477561150713e-06
9.6234497337364163089e-06
9.6158875906870197418e-06
9.6113035530416624424e-06
9.6095357787161494605e-06
9.603922744885555994e-06
9.5941462662975966421e-06
9.5676826008137533236e-06
2.1819215058585379833e-05
2.1977512398059705171e-05
2.206501341065730923e-05
2.2094393525587556129e-05
2.2092088431649306509e-05
2.2071815062783944195e-05
2.2018748241249214631e-05
2.1903178647886109896e-05
2.1796654161046769016e-05
2.171363206860063848e-05
2.1652652254651526769e-05
2.1609647337995367726e-05
2.1579458723405531533e-05
2.1556749214274992439e-05
2.1536728856823777285e-05
2.1514816079365262438e-05
2.1489639452624240845e-05
2.1461963057341092349e-05
2.1431291112787191822e-05
2.1399562642416313163e-05
2.1373418169500976309e-05
2.1350891892261970162e-05
2.1326302049500274997e-05
2.129074961646689612e-05
2.122314644378761798e-05
2.1129318746419612819e-05
2.1024410485300417658e-05
2.0923200023684254001e-05
5.1826160067757423989e-05
5.1872688713301179266e-05
5.1881355220375487104e-05
5.1859240787606595473e-05
5.1812686247726374023e-05
5.1713061604123269205e-05
5.1549982669911239706e-05
5.1401256511784650452e-05
5.1270038736508340355e-05
5.1156884234894624275e-05
5.1059241207893753484e-05
5.0973900358844434033e-05
5.0897134185450590123e-05
5.0827030940126721791e-05
5.0759885895743271579e-05
5.0695445729685238831e-05
5.063293918441181304e-05
5.0573804767494064377e-05
5.0518948310091124859e-05
5.0472077575572776842e-05
5.0429201073439305903e-05
5.0385051272575391221e-05
5.033064278507784424e-05
5.0247120437517572616e-05
5.0132462379993688944e-05
5.0005538391453266053e-05
4.9872610493423046236e-05
4.9745293886113631633e-05
4.9631821518489689291e-05
4.9540056556381102768e-05
8.6811822020666629509e-05
8.6633410914689097789e-05
8.6440332857928305586e-05
8.6241188745732005427e-05
8.6044229274392133432e-05
8.5856029997970402003e-05
8.5681133625966962434e-05
8.5521110712947974756e-05
8.537311312360293023e-05
8.5231779957254554837e-05
8.5091315791137572388e-05
8.4948560867433633168e-05
8.4802362061671651455e-05
8.4652863124223327223e-05
8.4499930586221178377e-05
8.4344068068433340388e-05
8.4186454877799960731e-05
8.4029805362030582437e-05
8.38769731583243589e-05
8.3729612651968122095e-05
8.3586863804295354128e-05
8.3446605439698226915e-05
8.3306687081186140418e-05
8.3166967171291862702e-05
8.3028833948065367443e-05
8.2894342714443219194e-05
8.2763969250951817652e-05
8.2638466755459129764e-05
8.2516079845651826331e-05
8.2397174788385551506e-05
8.2280099866919345327e-05
8.2162640887090701786e-05
0.00010937475888517827669
0.00010917147822190718541
0.0001089707542647646416
0.00010877242455355944431
0.000108577765029315004
0.00010838859289908478792
0.00010820599862975762058
0.00010802871568718893183
0.00010785309142825609172
0.00010767516251354834224
0.00010749425073052389231
0.00010731160834667445732
0.00010712879381260922756
0.00010694631400374825757
0.00010676315777946712498
0.00010657929372751173854
0.00010639685896738230509
0.00010621884181220810821
0.00010604822425668025427
0.00010588504802700197862
0.00010572569317637565533
0.00010556551052244262203
0.00010540149214670993018
0.00010523452854987730279
0.00010506699442398263896
0.00010490074801181623976
0.00010473544365811746559
0.00010457033981656728362
0.00010440460189107850729
0.00010423995265430237062
0.00010407622186268383475
0.00010391333935088035588
0.00010374717265569022219
0.00014127203180553635263
0.00014054743930593807059
0.0001398314408671469714
0.00013913102864429797273
0.00013845250880350720192
0.00013779251037535859142
0.00012147045542262017602
0.00012126665397869770726
0.00012106004849290695187
0.00012085231575930936612
0.00012064702393619202998
0.00012044787828370422166
0.00012025611130079691608
0.00012006895288964907951
0.00011988113152231181277
0.00011968881265481497904
0.00011949083006967550714
0.00011928918640912568674
0.00011908665082954409808
0.00011888382167527338754
0.00011867977783689119011
0.00011847456097726333072
0.00011827131475759049511
0.00011807527484245699048
0.00011789017868366116748
0.00011771474685783456097
0.00011754263624260971133
0.00011736638221615286644
0.00011718240443636947592
0.00011699199011181495586
0.00011679932313943529884
0.00011660741521302011128
0.00011641629193808357564
0.00011622489567638313586
0.00011603350196436202225
0.00011584314797124926249
0.00011565468821021191001
0.00011546544850969945228
0.00011527356075485200931
0.00011507666937521491863
0.00013642416182825650435
0.00013584881929620983205
0.00013527143370886036988
0.00013469146955628056488
0.00013411459469170439293
0.00013354324014254345633
0.00013297743726479931766
0.00011772994616871325401
0.00011739721638655655541
0.0001170762454992296033
0.00011677239422337159776
0.00011648782107862204244
0.00011621796204155697494
0.00011595186433350025462
0.00011567688412614639411
0.00011538618563544773778
0.00011508262753789550207
0.00011477604428007195957
0.00011447692087075724541
0.00011419123148913480495
0.00011392103636945660923
0.00011366910087444550062
0.0001134412737536349817
0.00011324333374142924065
0.00011307443187845699637
0.00011292292842780475668
0.00011277067921164243402
0.0001126014931276664695
0.00011241009482428475255
0.00011220397202082047828
0.00011199605112078539655
0.00011179588672569983445
0.00011160525805933824801
0.00011142126726582674153
0.00011124181886101712101
0.00011106729073824454063
0.00011089788458480658712
0.00011073118941553393804
0.00011056381341552325647
0.0001103967928812951704
0.00011023681080079190963
0.00011009232804166074586
5.8592086241167843227e-08
5.8726381253511268384e-08
5.8863802306394633936e-08
5.8993765320963137365e-08
5.9055700039047993749e-08
5.9162651144883744561e-08
5.9186555485874257971e-08
5.9252249915261745713e-08
5.9267289852447704693e-08
5.9284565860608431767e-08
5.9417913517793806711e-08
5.7379076812350712954e-07
5.7322240759221403369e-07
5.7246973896931013994e-07
5.7125730198845806596e-07
5.6872803328354099307e-07
5.6208093436014100646e-07
5.4285989871580703536e-07
5.1364061366766629502e-07
4.8344387132360936726e-07
4.5280594834965160891e-07
4.2220721095708254898e-07
3.9210622849847260015e-07
3.6287705133326911055e-07
3.3481340701634227233e-07
3.0814269766615011474e-07
2.8306924229742043521e-07
2.5972290335058491977e-07
2.3820274499847558589e-07
2.1857677625768401295e-07
2.0093009972992582652e-07
1.8527145290027258472e-07
1.7156071479484913164e-07
1.5968828254773180147e-07
1.4955976492389315503e-07
1.4102360354637449507e-07
1.3394083682794070097e-07
1.2810364773419856021e-07
1.2334660760294592762e-07
1.1944567540522713504e-07
1.1622207410847507303e-07
1.1348633893958385312e-07
1.1117019084265587461e-07
1.0923411890753763747e-07
1.0769155381245402052e-07
1.0644302503536627947e-07
1.0540439354923997746e-07
6.0847913223475672425e-08
6.0909917339531923566e-08
6.0960029233181907535e-08
6.0987418775874446876e-08
6.0984830997330465365e-08
6.0995513525648324218e-08
6.1057641284012977415e-08
6.1171642616370746718e-08
6.1312881313838127531e-08
6.1459227222427633415e-08
6.1606137437959996609e-08
6.1734216814837970855e-08
6.1845079980855647134e-08
6.1956435820855769963e-08
6.2007847987002570227e-08
6.209697866361680646e-08
6.2111981976155382102e-08
6.2165267346721121716e-08
6.2168145074770365459e-08
6.2172129849689838695e-08
6.2269549115360123199e-08
6.0279462674869947504e-07
6.0242554496720189287e-07
6.0195779984292063687e-07