/*--------------------------------*- C++ -*----------------------------------*\
  =========                 |
  \\      /  F ield         | OpenFOAM: The Open Source CFD Toolbox
   \\    /   O peration     | Website:  https://openfoam.org
    \\  /    A nd           | Version:  12
     \\/     M anipulation  |
\*---------------------------------------------------------------------------*/
FoamFile
{
    format      ascii;
    class       volScalarField;
    location    "0.00542";
    object      p;
}
// * * * * * * * * * * * * * * * * * * * * * * * * * * * * * * * * * * * * * //

dimensions      [1 -1 -2 0 0 0 0];

internalField   nonuniform List<scalar> 
106891
(
98841.053004832254373
98846.907324889456504
98849.404905027957284
98847.98730963707203
98842.451519361668034
98833.08439357370662
98820.695203311697696
98806.657879416670767
98792.789728094649035
98780.87450637454458
98772.871561516920337
98527.965086266805883
98513.065839998467709
98505.13383737928234
98501.971537984078168
98503.998243821537471
98514.58657436275098
98536.894637085584691
98569.718850001489045
98606.412383239105111
98637.686603518945049
98656.937527474132366
98663.41971335587732
98661.666986160489614
98657.387269551734789
98653.70086694751808
98650.189452548278496
98644.697702230376308
98636.340817223070189
98626.77083338018565
98619.325897862945567
98617.208064201695379
98621.73285407241201
98631.862075721204747
98645.47167947696289
98660.972259903152008
98677.759326103216154
98695.459068414289504
98712.93371811194811
98728.559798237140058
98741.851444820364122
98754.15341023124347
98767.582960047118831
98782.83950588425796
98797.637130587521824
98807.308493690943578
98807.653555522207171
98797.822415754009853
98781.385026676740381
98782.24633138156787
98780.3420998051879
98780.596875007409835
98783.57390107215906
98789.384546131885145
98797.681467204340152
98807.78672159765847
98818.743082440909347
98829.336494479866815
98838.179962445850833
98843.944452227922739
98845.591268542018952
98842.561755527320202
98834.844779204227962
98823.017471968880272
98808.196033038300811
98791.984387185060768
98776.353907890967093
98763.206201535984292
98754.543817182799103
98518.874882729141973
98514.61918997115572
98515.812943621902377
98520.718570420562173
98531.269342386425706
98550.502085720625473
98578.167169333508355
98608.810723122674972
98634.507384611279122
98649.919658835118753
98655.210729595972225
98655.046437424054602
98654.66806779250328
98656.323788629466435
98658.656030651443871
98658.513475830666721
98653.959523826008081
98646.097339116240619
98638.168651446394506
98633.620682878827211
98634.357220951977069
98640.050470020578359
98648.870342019043164
98659.312092791529722
98671.091737806607853
98684.600209385491326
98699.983518944471143
98716.654880679416237
98733.862408635905012
98751.166640409894171
98768.020949197409209
98783.130017882664106
98794.116399338352494
98798.173592041115626
98793.649453437421471
98781.67970121675171
98774.196730345807737
98772.912354546526331
98773.622394817313761
98776.8901931297587
98782.931485865905415
98791.475623860926135
98801.761424249256379
98812.695494351122761
98823.008209881823859
98831.366641381042427
98836.494917659234488
98837.362505727418466
98833.399176682258258
98824.648774827001034
98811.823855975613697
98796.219186437432654
98779.56914680392947
98763.863357911322964
98750.93062903280952
98742.601447631881456
98539.744250590199954
98537.127859304164303
98539.006694435243844
98543.336188800283708
98551.591640593818738
98566.278743142436724
98587.479625183405005
98610.942408499948215
98630.536794238185394
98642.589577711783932
98648.183667819801485
98651.72798960217915
98657.468374506483087
98666.229637234966503
98674.88053681513702
98679.08403557636484
98676.490853055598564
98668.511189125536475
98659.292064391178428
98653.201784083459643
98652.491649872055859
98656.596724105504109
98662.948956299762358
98669.0513276575075
98674.391567616854445
98680.414572533511091
98689.512927471703733
98703.401689609599998
98721.867703377109137
98742.751112453974201
98762.342555729788728
98776.646332010976039
98783.075053815162391
98781.284487246230128
98773.182306068047183
98762.156189026776701
98768.320828061114298
98769.895239967037924
98773.440279031536193
98778.927633315732237
98786.132896332506789
98794.570994274399709
98803.476576330533135
98811.854667316729319
98818.583829462077119
98822.567296000896022
98822.888823560802848
98818.992441556591075
98810.838316802095505
98798.99824916102807
98784.631254455744056
98769.382674013075302
98755.177390176366316
98743.783042050592485
98736.834665043032146
98569.954721845220774
98568.647655431050225
98570.115607722764253
98575.65786948238383
98586.587301601102808
98601.89731806673808
98618.032642093749018
98631.204082348296652
98640.203052851182292
98647.462763849704061
98656.950197534941253
98670.571629384488915
98686.370100178261055
98699.401753428246593
98704.933999785367632
98701.504341661537183
98691.988901083663222
98681.878112498481642
98676.253385486968909
98677.114434497256298
98682.545344173631747
98688.25067821292032
98690.175873123342171
98687.350284663581988
98682.892063308157958
98682.306295044982107
98690.249655726685887
98707.375229463956202
98729.637467505235691
98750.301364568687859
98763.21321810731024
98765.916929742117645
98760.520778565682122
98751.79406810819637
98765.840187145207892
98766.439369526080554
98768.517602767518838
98771.842967388947727
98776.124952559330268
98781.075875471098698
98786.412672287755413
98791.80813582961855
98796.81630337475508
98800.830094367338461
98803.118404322187416
98802.957692644471535
98799.813481502729701
98793.517914502052008
98784.381543901137775
98773.210932174522895
98761.263820364547428
98750.12009175257117
98741.347160654346226
98736.413812224418507
98608.819345343770692
98603.062692874329514
98602.019796862907242
98606.415355666540563
98615.478996465681121
98626.358067985856906
98635.870784679340431
98642.650148982953397
98648.643717969433055
98658.084401382046053
98673.730611768245581
98694.503178369850502
98715.414289548905799
98730.068266750138719
98734.185795614830568
98728.181194632517872
98716.817919876004453
98706.902083283668617
98703.581594977804343
98707.738486421236303
98715.486675260457559
98720.522818243000074
98717.547024002793478
98705.79928242090682
98690.428021240906673
98679.680887615802931
98680.292042062472319
98693.698086775722913
98714.847095877688844
98734.897851894449559
98746.347141896898393
98747.133589659555582
98741.220631743606646
98763.87385962253029
98766.308466055837926
98769.082971013776842
98771.723581001904677
98773.985807657736586
98775.868309381810832
98777.502593438621261
98779.001411781922798
98780.311215235531563
98781.134038404226885
98780.961905623553321
98779.237295042243204
98775.587009525421308
98770.005678650224581
98762.946092683807365
98755.25910645291151
98748.08366265874065
98742.651159899949562
98740.184844673989573
98644.073733003227971
98642.547613018876291
98647.862233971391106
98656.904379328436335
98664.711615731939673
98668.255571149391471
98668.7712118672207
98671.40738598057942
98681.538597290462349
98701.029150114656659
98726.357142058448517
98749.767505025316495
98763.911378210235853
98765.836440722792759
98757.926979134790599
98746.194540526586934
98737.527206506070797
98736.159578761798912
98741.510555715824012
98748.631486217753263
98750.607063539326191
98742.398650383387576
98724.056656683736946
98701.490148462398793
98683.861253165625385
98678.625723456993001
98687.277651531447191
98704.507099057896994
98721.470210327228415
98731.213710295167402
98732.578155569310184
98729.816397278307704
98756.391981280205073
98758.502397137257503
98760.31948554867995
98761.355645506526344
98761.452654962937231
98760.800179108468001
98759.818564478788176
98758.955657881393563
98758.496323626721278
98758.453677108176635
98758.572852820449043
98758.415299125859747
98757.524569495493779
98755.608498164321645
98752.718969537396333
98749.292752622350235
98746.065379308609408
98743.949937170749763
98743.943789537981502
98697.03388125350466
98704.551969445703435
98712.191889031091705
98715.141980257540126
98712.14922353986185
98706.953740331737208
98706.447092783928383
98716.107734756791615
98736.31419989252754
98761.588548312080093
98784.034273654033314
98797.52097482222598
98800.204505636924296
98794.361722815505345
98784.892696358467219
98776.651814464697964
98772.531438997248188
98772.434829886027728
98773.146492652740562
98769.71669246685633
98758.392979788666707
98739.331927203384112
98717.190374604251701
98699.120332491249428
98691.053892488445854
98694.38469516808982
98705.15163432409463
98716.699365338223288
98724.070361768302973
98726.582101811814937
98743.296653928759042
98744.022070056627854
98743.995563689910341
98743.234002669647452
98741.981588329246733
98740.60797449859092
98739.492738644810743
98738.886611888665357
98738.841582576089422
98739.233690461885999
98739.820699961186619
98740.338060459165717
98740.563659646169981
98740.422269474642235
98740.05561176421179
98739.861355483633815
98740.501412705300027
98742.741525694451411
98772.717374437692342
98773.780780654124101
98769.083506617462263
98760.30571301409509
98752.198767769266851
98750.629060630642925
98759.218122746286099
98777.13869877376419
98799.480618955523823
98820.048273051521392
98834.04133051300596
98839.498357956792461
98836.728770539353718
98827.862980757272453
98816.03938780768658
98804.510000056470744
98794.855044459269266
98786.760479212767677
98778.234883814846398
98767.299849434944917
98753.850954496330814
98739.607130974560278
98727.535045572396484
98720.297831088159001
98718.463016410009004
98720.192511136890971
98722.763899083307479
98724.585116530419327
98719.687389021448325
98720.012618401480722
98720.435145675335662
98721.013386964885285
98721.792047851151437
98722.760550961538684
98723.84792127244873
98724.934360919127357
98725.876073995736078
98726.554666813826771
98726.912950891579385
98727.003805026703048
98726.968743225428625
98727.0380542579951
98727.478340339948772
98728.570874203622225
98730.766951374331256
98734.603723769832868
98830.039246644839295
98818.265902629675111
98806.658279563635006
98799.870762134101824
98800.626353880259558
98809.37891975689854
98824.358679849960026
98842.114790941152023
98858.836142956191907
98871.024072145417449
98876.054357612782042
98872.758745696162805
98861.795505633475841
98845.36992914507573
98826.768385253555607
98809.223955821435084
98795.091672772236052
98785.167183769124676
98779.176418787945295
98775.673972805976518
98772.837009477443644
98769.180689324668492
98763.418371463296353
98755.067399266001303
98744.943370300592505
98735.026194502410362
98727.476178534940118
98692.617166356067173
98695.094816492652171
98698.905439474285231
98703.738040227850433
98709.001843858524808
98713.947390105313389
98717.853272951106192
98720.224313073835219
98720.914929725782713
98720.139624475195887
98718.416855280913296
98716.401238353908411
98714.788605011330219
98714.169285272713751
98714.972551534941886
98717.549013447496691
98722.089094925293466
98875.254022022156278
98869.58986843812454
98861.698371706195758
98855.744728360965382
98853.705437342010555
98855.965973013851908
98862.295537138255895
98871.966419230928295
98883.636866522079799
98894.627494524422218
98901.652498015711899
98901.807276237072074
98893.927808097112575
98879.027479805285111
98860.094912661312264
98840.671502453871653
98823.839475326851243
98811.537226830871077
98804.91858990311448
98804.282211817553616
98808.146074491189211
98813.171863358540577
98814.694373189806356
98808.58174528980453
98793.693371489891433
98772.578050419731881
98750.248624663567171
98672.947026764726616
98680.517322822182905
98689.431521539154346
98698.732124180562096
98707.218535396183142
98713.753508904017508
98717.579789565104875
98718.49961500352947
98716.879764588869875
98713.565144924708875
98709.622280337163829
98706.1202956289344
98703.895552683869028
98703.472997482138453
98705.154416595585644
98708.96214139071526
98883.449448435960221
98890.02499287725368
98894.913177474343684
98897.672555989847751
98897.958179161912994
98896.911401888472028
98897.044255545784836
98900.519806995391264
98907.131566818759893
98913.738536941193161
98915.959455581600196
98910.815254923902103
98898.612213057669578
98882.458809830059181
98866.344867148858611
98852.911563953777659
98843.189222060711472
98837.011212671743124
98834.311461324847187
98835.332223313977011
98839.48030292893236
98844.165088617024594
98844.829924765625037
98837.071071123762522
98819.237087589965085
98793.47082826012047
98765.032922323225648
98740.054222531020059
98668.421107656860841
98678.900184748636093
98689.506322599234409
98699.142805199531722
98706.780654743299237
98711.676185000440455
98713.539274520153413
98712.611270960347611
98709.622142147389241
98705.570214082064922
98701.530956586444518
98698.390701271928265
98696.736043754921411
98696.856718787239515
98698.726300462250947
98900.131338036007946
98916.09408298067865
98925.303840051667066
98925.795743458598736
98920.184691144328099
98913.976800066462602
98912.146280448592734
98915.511565694701858
98920.21833324439649
98920.526466397277545
98913.019035623190575
98898.883361374944798
98882.85485801534378
98869.899041665019467
98862.504295060309232
98860.168021545061492
98860.587559570325539
98861.781440878330613
98862.890748253237689
98863.829704126692377
98863.963486005566665
98860.838677311083302
98851.39699834388739
98833.612515756016364
98808.093194139655679
98778.805642919964157
98751.632917777562398
98670.32996228596312
98680.368182726495434
98689.637034201121423
98697.330938814411638
98702.81427500594873
98705.780082717494224
98706.300377262188704
98704.809109386813361
98701.972044245500001
98698.598407261742977
98695.413360034537618
98692.950319452254917
98691.538346894594724
98691.270467183552682
98932.191910663619637
98943.893409497686662
98942.039118211221648
98930.786926187298377
98918.415904547699029
98912.088774091767846
98913.520710124372272
98918.246237244529766
98919.412025045647169
98912.657539396328502
98899.030367577739526
98883.916167349889292
98873.383444684746792
98870.598616617309744
98874.578863174639991
98881.301483848321368
98886.33602940660785
98886.999777784338221
98883.34264533201349
98876.923654118872946
98868.562380642993958
98857.497213743277825
98841.554100678491523
98819.552748936926946
98793.243591070786351
98767.314174074548646
98670.003308068000479
98678.043362510448787
98685.339395356393652
98691.364486271166243
98695.733122149118572
98698.256680712293019
98698.982867692713626
98698.149420075700618
98696.180434086709283
98693.517297882033745
98690.589549125623307
98687.764660434186226
98685.295870201080106
98954.700429134565638
98948.803956007803208
98932.252044364562607
98914.77097669817158
98904.713919704779983
98904.730804845487
98910.517935477531864
98914.456070388114313
98910.959351642566617
98899.820502885660972
98886.035413080142462
98876.547070575586986
98875.874908044352196
98883.698368608223973
98895.065488940730575
98903.308515757511486
98903.777843660194776
98896.291635446119471
98883.959575322907767
98870.679405536167906
98858.174649890657747
98844.844619198876899
98828.077370145270834
98807.241996040786034
98785.154287448967807
98665.340105108582065
98672.175685411129962
98678.77987271558959
98684.639833404216915
98689.295994609157788
98692.396759164723335
98693.769519441731973
98693.463876422712929
98691.647340384006384
98688.627643045183504
98684.73442971050099
98680.295969686587341
98952.294902866065968
98931.067587990241009
98909.179962023335975
98895.211909650373855
98892.679593882916379
98898.879483951139264
98906.323003503741347
98907.675074423634214
98900.618668415161665
98888.94524999721034
98879.660767737761489
98878.611401838352322
98887.003386112453882
98900.205687986104749
98910.379110331501579
98911.174163885531016
98901.475171442973078
98885.419826335579273
98869.139338206339744
98855.971034777961904
98845.300415378587786
98833.938090536015807
98819.413215527165448
98802.665426034771372
98932.612639494371251
98906.227311758659198
98887.208183362803538
98880.36540618079016
98884.656000884671812
98893.941225536429556
98900.51514204259729
98899.447949505163706
98891.558570726803737
98882.592225795902777
98879.561876765699708
98885.528192674872116
98897.371995444715139
98907.493479694778216
98908.754311477779993
98898.941386125748977
98881.893632511724718
98864.556301333650481
98851.943678590745549
98844.192383353947662
98837.888512597288354
98829.461585629469482
98818.51297701925796
98883.762812112821848
98870.444131719574216
98870.192283372816746
98879.03394262229267
98889.547616804775316
98894.708829322611564
98891.872793753340375
98884.392538854779559
98879.022459656742285
98880.481342907223734
98887.828612212237203
98895.324669400739367
98896.51036193332402
98888.49765391148685
98873.962803201080533
98858.836442337560584
98848.129145709739532
98843.03618835376983
98840.933580420460203
98838.154147879118682
98832.69877374189673
98876.349871933707618
98886.688381043830304
98889.210117124588578
98884.334459961639368
98877.167923069529934
98873.084162451108568
98873.840318236776511
98876.658247063707677
98877.024546134329285
98872.033262821423705
98862.477817121922271
98852.129276431252947
98845.047561201194185
98842.879652047588024
98844.234629417871474
98845.934034648860688
98845.11814992739528
98873.378335015557241
98863.898623992325156
98857.489960719904047
98854.854777651329641
98854.047283832493122
98852.524452115729218
98849.235522997842054
98845.193445215758402
98842.8509033825394
98844.007260623286129
98848.281099958068808
98853.35776682102005
98856.105688112744247
98852.699509200043394
98839.849391455936711
98832.306013540001004
98830.592917278117966
98832.719643505406566
98835.95171721332008
98838.832721089376719
98841.813338958760141
98846.325144967981032
98853.045698015324888
98860.57328744015831
98865.758622763096355
99183.121622635910171
99198.759866226711893
99218.721259986574296
99237.483689185552066
99247.626798040408175
99243.210046356587554
99220.89714434731286
99182.483158018512768
99132.975967484715511
99081.74142218430643
99040.561110063717933
99018.961562286320259
99019.048280558636179
99035.187829743721522
99056.400545486729243
99071.768891699946835
99076.2751389752666
99070.782576461308054
99059.91858441097429
99048.362447063074796
99183.222797576585435
99193.968216906490852
99210.689512073106016
99229.140536603081273
99242.959096116232104
99246.280656222515972
99236.251695975035545
99211.544056647529942
99172.721870503024547
99124.412688842945499
99073.773620390420547
99032.416695462481584
99011.414902101605549
99014.69396833825158
99036.337351368842064
99063.062580267345766
99082.131017539955792
99087.247320789727382
99080.276601826568367
99067.385950940835755
99054.007456691455445
99041.968820099515142
99199.17853257904062
99190.257028663167148
99191.806163972316426
99203.359233220238821
99221.320603063606541
99238.634036766190547
99247.85674898965226
99244.898519149573985
99229.543859027733561
99202.556513422357966
99164.050677571591223
99116.489909414580325
99066.42512534945854
99024.633675027289428
99004.092015287606046
99010.278512920907815
99037.048388053954113
99069.284753268206259
99091.626654552921536
99097.126736435297062
99088.651826549816178
99073.81690843605611
99058.841614347169525
99045.138591092167189
99031.239786702237325
99016.098606745828874
99234.242608411223046
99212.274686077158549
99199.055423722224077
99198.772956260319916
99211.215242374630179
99230.53743935978855
99247.028002888648189
99252.242786764880293
99243.681123178335838
99223.490137284170487
99194.450920895193121
99156.335685151236248
99109.624040343507659
99059.681117060201359
99017.609055418419302
98997.124506818712689
99005.901713668485172
99037.548127712187124
99074.796801894874079
99100.244295931363013
99105.933829946414335
99095.769054799806327
99079.15651463510585
99062.777848956422531
99047.756979856887483
99032.073264845763333
99015.473578451681533
98999.414553903639899
99274.670207809482235
99248.868036726897117
99223.069760609665536
99205.934603998059174
99204.012760933270329
99217.378060636532609
99238.21911617173464
99254.295261119972565
99256.222359797859099
99242.718544384595589
99218.402220025629504
99187.537208129957435
99149.845061181316851
99103.747558200120693
99053.673149835813092
99011.123976539718569
98990.721336390037322
99001.679408927564509
99037.728300008689985
99079.743905743816867
99107.840365130396094
99113.587239435059018
99101.770199027640047
99083.402977516205283
99065.955925015907269
99049.86424547052593
99032.690000950009562
99014.662519202873227
98998.231015622688574
98983.600689634084119
99304.339737614878686
99287.576079202772235
99260.55890619836282
99231.370057831329177
99210.83368289124337
99207.555090860085329
99221.994879464749829
99244.480907979814219
99260.526686358556617
99259.720555563821108
99242.050218656062498
99214.283779398945626
99181.856910051021259
99144.744540254439926
99099.011628023188678
99048.640226984804031
99005.322411857734551
98984.972824513111846
98997.753570325789042
99037.821229593246244
99083.955752521840623
99114.466118891054066
99120.045194101287052
99106.595023416448385
99086.709411122734309
99068.394094394257991
99051.519621575280325
99033.10499980932218
99013.853071453602752
98997.197817772714188
98983.132643738397746
98965.624201924962108
99312.839247455485747
99297.458727360091871
99269.433322208162281
99237.344097944427631
99214.020094112594961
99209.670875248557422
99225.196188098561834
99249.238492384771234
99265.383874278209987
99262.542377158155432
99241.578654622891918
99210.978902562826988
99177.624568281986285
99140.817695206584176
99095.695553882760578
99044.283007879785146
99000.171038740561926
98979.972813642772962
98994.448745027140831
99037.779208897190983
99087.431412615114823
99119.88176316213503
99125.214436964088236
99110.2875474634493
99089.117785278125666
99070.143100332876202
99052.742672453867272
99033.405282613632153
99013.17928731640859
98996.326602056724369
98982.92261002426676
98965.772730884535122
98936.163672729147947
98570.942958573010401
98585.050821028387873
98589.702530209731776
98594.363340738273109
98606.471911318454659
98615.958951890163007
99318.781350925084553
99304.214758776986855
99275.336110631586052
99241.075271196750691
99215.724407400542987
99210.7131861737289
99227.183445091592148
99252.602857250356465
99268.808580154422089
99264.55096218851395
99241.235105659798137
99208.725486190189258
99174.776978354188032
99138.181004574158578
99093.535691993805813
99041.434430545035866
98996.221679862952442
98976.048646536233719
98991.939823338194401
99037.735395844094455
99090.015795042316313
99123.796141799728503
99128.909074478695402
99112.87350235095073
99090.687027765015955
99071.260080982770887
99053.534255408871104
99033.607680658635218
99012.66295661345066
98995.66451274555584
98982.889280505958595
98966.18322472597356
98935.786698749216157
98891.252613598087919
98550.953154186456231
98571.191675713314908
98584.516942782021943
98588.831870989364688
98593.976052332858671
98607.226737912584213
98617.337681090823025
99321.822751736690407
99307.579577418262488
99278.190120736908284
99242.763174920546589
99216.313616234605433
99211.053467049147002
99228.112590111326426
99254.429128152230987
99270.628397756197955
99265.596276668933569
99241.040355740740779
99207.554246812491328
99173.322012642471236
99136.909014720222331
99092.377460293573677
99040.014591994462535
98993.706712745726691
98973.768448365226504
98990.628261309262598
99037.811533982341643
99091.563403005638975
99125.946377435102477
99130.948915433415095
99114.199277662628447
99091.453854656210751
99071.812780142150586
99053.927309651029645
99033.696545590864844
99012.37502096411481
98995.302755229204195
98983.01592422851536
98966.554527755462914
98935.677501504324027
98890.069423574706889
98842.834771397334407
98846.481345328444149
98846.737218459689757
98848.20350922421494
98849.989759388336097
98850.954796183796134
98850.070250186880003
98846.734323902972392
98840.933662774128607
98833.205405747401528
98824.3549334895215
98815.957911767094629
98591.55710602948966
98583.268039419723209
98574.600869675501599
98567.229476367021562
98563.996304750675336
98565.744089080864796
98569.48940084221249
98569.822260944609297
98563.111045582787483
98550.425568473729072
98537.917112328199437
98533.552577336376999
98542.230516693409299
98562.691748125915183
98587.111588266328909
98604.991401626684819
98609.652089852155768
98602.303343874489656
98590.856293033095426
98585.077392901352141
98591.478766821630416
98610.544116143777501
98637.092582639350439
98662.783324533796986
98680.134738096254296
98685.872761402264587
98682.076146642211825
98674.912572321190964
98671.607708728537546
98676.959793556903605
98690.728409439238021
98707.918099222180899
98722.279373168945312
98730.5291951718973
98734.407464899137267
98739.051410586820566
98849.544256180422963
98860.827491733085481
98868.45481441449374
98872.041378140478628
98871.795420852562529
98868.394552916564862
98862.937079901588731
98856.75434189439693
98851.075951512641041
98846.727434855696629
98844.019558861808036
98842.749060836635181
98842.327334678673651
98841.911436691385461
98840.536069478126592
98837.27756524902361
98831.492141023438307
98823.091759093367727
98812.677456344725215
98801.224209999330924
98790.462249180825893
98595.977761403424665
98593.490397404835676
98589.061246364552062
98585.019064722888288
98584.738533064766671
98588.576321318469127
98592.394637577468529
98590.796739239303861
98580.917427129752468
98565.23414621919801
98551.011010833084583
98545.657883122752537
98552.742856364799081
98569.955588619573973
98589.221993348153774
98601.395643922383897
98602.309731136221671
98595.15249386439973
98588.192585167387733
98590.306641050905455
98606.695614984477288
98636.11751645624463
98671.18455143632309
98701.442073221536702
98717.600069390900899
98715.562491727905581
98698.407564458437264
98675.018895493238233
98655.89584688222385
98648.692049236691673
98655.119336053714505
98670.630909199433518
98687.837030230803066
98701.407546186208492
98710.844716920808423
98719.748985922895372
98850.698603901415481
98861.402203057834413
98867.9778471410973
98870.305759020877304
98868.98596465094306
98864.986629588573123
98859.346032132569235
98853.059128865628736
98847.035288483617478
98841.983861939850613
98838.26339615546749
98835.793849219364347
98834.070028257890954
98832.291285743121989
98829.539518921737908
98824.986875878108549
98818.048222357523628
98808.57687485612405
98797.04071978678985
98784.339254773047287
98772.191886551896459
98599.856252520956332
98602.554356695400202
98604.713237042247783
98609.016520774617675
98614.48413802862342
98617.049810054100817
98612.264510000008158
98599.268113610596629
98582.438298503984697
98568.628623394470196
98563.596551564507536
98569.286557488085236
98582.025502729229629
98594.336605031479849
98600.524214568737079
98599.716595463032718
98596.051122666263836
98596.593933905547601
98608.175830027044867
98633.8548129091796
98670.65166753862286
98709.88107147255505
98740.462960381570156
98752.960632988062571
98743.477423007847392
98715.59610222640913
98679.328247421581182
98646.900618837797083
98627.703295766958036
98625.143937136235763
98636.152217891067266
98653.733509569326998
98671.452967617544346
98686.636094724730356
98857.624176067503868
98862.228701286861906
98862.751121104054619
98859.925541730000987
98854.86629047007591
98848.729475928499596
98842.449502889445284
98836.650866046504234
98831.696028988808393
98827.742215934675187
98824.745346394527587
98822.403592358386959
98820.141088387928903
98817.1731700093369
98812.697630081689567
98806.0922573384305
98797.108596644102363
98786.045825188557501
98773.608891664989642
98761.276869167631958
98600.468302760185907
98614.093265800634981
98625.590254719965742
98634.99707941521774
98641.022530320900842
98640.754036863712827
98632.564026898398879
98618.66488227363152
98603.711132044540136
98592.841063695086632
98589.536554591453751
98592.982869732615654
98598.795479445965611
98603.092632710540784
98604.751095212865039
98605.505690856371075
98609.146683942119125
98620.008868446937413
98641.316658829906373
98673.134848616653471
98711.331560692036874
98747.768510593785322
98772.992050397777348
98779.556002842116868
98764.680764384349459
98731.651820476312423
98689.202153296282631
98648.732926729164319
98619.986526527471142
98607.840937062283047
98611.537120517328731
98626.060576506191865
98645.280193517872249
98664.864936720303376
98849.139980689753429
98850.980972664619912
98849.176942943173344
98844.692266489859321
98838.658309753402136
98832.140819777690922
98825.961418461884023
98820.62368116088328
98816.33369571431831
98813.082838601389085
98810.702923196193296
98808.897740474349121
98807.211486241285456
98805.024567063461291
98801.641091025012429
98796.439926308172289
98789.06958480537287
98779.631989447239903
98768.573780895851087
98757.008206897400669
98624.751938671834068
98646.984227191802347
98661.311533196538221
98666.38656756268756
98662.479100056705647
98652.294856953594717
98640.296550710947486
98630.896254220351693
98626.248481832779362
98624.879230174803524
98623.526723075818154
98620.490021618374158
98617.161429229963687
98617.012387072478305
98623.503129985314445
98638.38037706335308
98661.129809391393792
98689.865818626974942
98721.828965608627186
98753.062958262235043
98778.663219121517614
98793.454391411971301
98793.302989999981946
98776.723204658468603
98745.781868687685346
98705.907895962023758
98664.964625138396514
98631.10065963024681
98610.107751260453369
98604.11361050484993
98611.66698281581921
98628.601883367809933
98833.29824863691465
98829.24667919120111
98823.250642476952635
98816.529188085172791
98810.064713756524725
98804.515360456483904
98800.234398158907425
98797.331599650875432
98795.731470821352559
98795.200842480699066
98795.365601171637536
98795.713870561026852
98795.613777610880788
98794.367539834944182
98791.346013182919705