/*--------------------------------*- C++ -*----------------------------------*\
  =========                 |
  \\      /  F ield         | OpenFOAM: The Open Source CFD Toolbox
   \\    /   O peration     | Website:  https://openfoam.org
    \\  /    A nd           | Version:  12
     \\/     M anipulation  |
\*---------------------------------------------------------------------------*/
FoamFile
{
    format      ascii;
    class       volScalarField;
    location    "0.00542";
    object      p_0;
}
// * * * * * * * * * * * * * * * * * * * * * * * * * * * * * * * * * * * * * //

dimensions      [1 -1 -2 0 0 0 0];

internalField   nonuniform List<scalar> 
106891
(
98841.805841221808805
98847.514542651100783
98849.82901912239322
98848.209945333001087
98842.479193201797898
98832.949935948810889
98820.454201445987565
98806.384388126636622
98792.570411161432276
98780.802076704669162
98773.03004172439978
98528.080831070255954
98513.527098374019261
98505.859634681808529
98502.922319879857241
98505.234230591406231
98516.224664289038628
98538.950532435759669
98572.010323035152396
98608.591763708638609
98639.416273099806858
98658.063531683190376
98664.024455342281726
98661.968977474127314
98657.572170432802523
98653.82859435674618
98650.211690525262384
98644.556651147649973
98636.057044227680308
98626.447612567804754
98619.101420007515117
98617.189988850383088
98621.953584077666164
98632.292991034933948
98646.079113571206108
98661.746857756908867
98678.697424589830916
98696.524323004749021
98714.042755311238579
98729.634144378680503
98742.880153995254659
98755.187760956861894
98768.667255070831743
98783.926770054895314
98798.560971905753831
98807.857830420311075
98807.702559356461279
98797.414086050004698
98780.737924288885552
98782.637907251817524
98780.86758281319635
98781.268882161879446
98784.397014436952304
98790.350196815983509
98798.760256777968607
98808.925473396768211
98819.87310507716029
98830.385328136995668
98839.082181024394231
98844.646738413226558
98846.058592386063538
98842.781953240628354
98834.834843099873979
98822.825672006481909
98807.898595863865921
98791.674160174894496
98776.127294599602465
98763.1524960413808
98754.736240519298008
98519.291390355167096
98515.357804982064408
98516.735012720906525
98521.809905608984991
98532.612106379630859
98552.138176565887989
98579.962238103529671
98610.475310219917446
98635.762014467414701
98650.663562163899769
98655.555229662219062
98655.211448868358275
98654.820290159026626
98656.491475405797246
98658.753901893054717
98658.43506983233965
98653.686707330358331
98645.719359176204307
98637.829062251097639
98633.448001997108804
98634.415979515382787
98640.333626248771907
98649.34439116048452
98659.96675084256276
98671.934541120674112
98685.626684098664555
98701.151332765424741
98717.895917559886584
98735.117061252894928
98752.388737784640398
98769.154735472649918
98784.087938652475714
98794.778354859212413
98798.433142699548625
98793.484308743500151
98781.195817642248585
98774.795382477983367
98773.659264447167516
98774.524701752961846
98777.937357607865124
98784.098337982082739
98792.725232635741122
98803.043827027504449
98813.947162023163401
98824.157473228697199
98832.34507353657682
98837.248597860088921
98837.860093401119229
98833.636578452365939
98824.650315275925095
98811.642720449366607
98795.935258241966949
98779.280742289818591
98763.672487677395111
98750.92714150401298
98742.850463127702824
98540.061626714727026
98537.70397458174557
98539.68952816183446
98544.102579543323372
98552.510804916208144
98567.394742112752283
98588.698878428767784
98612.042029258998809
98631.312425803116639
98642.997179765428882
98648.352205678384053
98651.85757668603037
98657.685639849252766
98666.499621649403707
98675.052449822425842
98679.017998063878622
98676.164562014382682
98668.041972634018748
98658.866118420803105
98652.97508267161902
98652.525762751538423
98656.858002927561756
98663.356351417431142
98669.554706909650122
98675.00323218946869
98681.187848473171471
98690.497536252602004
98704.590061209950363
98723.177986833004979
98744.039179436891573
98763.431381605987553
98777.391121751425089
98783.412729903968284
98781.248781674250495
98772.886147849552799
98761.748682715580799
98769.299365641636541
98771.004166537008132
98774.662854285241337
98780.231617533470853
98787.474837096728152
98795.901609793523676
98804.743379539228044
98813.003245598316425
98819.561270762176719
98823.329933431727113
98823.411433287255932
98819.275689343514387
98810.909994270623429
98798.910456569967209
98784.455784238743945
98769.204709988014656
98755.086461808707099
98743.860199060931336
98737.139884605276166
98570.15991810747073
98568.920833479336579
98570.46814281900879
98576.141517861382454
98587.204444587783655
98602.549817406674265
98618.564867186491028
98631.516996359510813
98640.332231991837034
98647.56092739822634
98657.1604737919115
98670.910785245665465
98686.71024079725612
98699.549500759880175
98704.76533041386574
98701.050703332730336
98691.43028567219153
98681.441833219243563
98676.101044071416254
98677.262678801082075
98682.881097884877818
98688.608778978144983
98690.4450887793937
98687.557631220508483
98683.18947998569638
98682.875580740772421
98691.173837433918379
98708.558357879548566
98730.837147234327858
98751.24114046995237
98763.713226345906151
98765.978658417661791
98760.296638531246572
98751.49329793099605
98766.935907027727808
98767.640376891155029
98769.798247422630084
98773.170599796852912
98777.464936625852715
98782.394934463314712
98787.67974177718861
98792.99452060132171
98797.893980637134518
98801.770316087655374
98803.8937673875771
98803.548541541909799
98800.21581849596987
98793.749024531192845
98784.480200317440904
98773.233343391475501
98761.278444588446291
98750.199836578045506
98741.558975006177207
98736.808759735897183
98608.553937509248499
98602.899822619117913
98602.005425796771306
98606.551467693192535
98615.692829095074558
98626.520563695477904
98635.889924734539818
98642.541338294744492
98648.549391357824788
98658.167021686633234
98674.041243602434406
98694.934573806720437
98715.749602854702971
98730.098746731819119
98733.843916159574292
98727.581918955998844
98716.208858384678024
98706.535319982489455
98703.584938404688728
98708.048137379053514
98715.88512132971664
98720.757390958809992
98717.47193960538425
98705.488728536773124
98690.143451399679179
98679.714386077423114
98680.798969083916745
98694.593357115692925
98715.832365505557391
98735.629122805592488
98746.629900672094664
98747.020520441277768
98740.95228339676396
98765.193780359186349
98767.652623434085399
98770.405859679347486
98772.9885799750773
98775.171273415908217
98776.96648933950928
98778.514661104331026
98779.930886866291985
98781.15793760518136
98781.891260107586277
98781.617681257645017
98779.781243887628079
98776.018838214542484
98770.340757728772587
98763.215670264908113
98755.506868695869343
98748.361378660949413
98743.012644344780711
98740.677111261116806
98643.577681462324108
98642.282778758919449
98647.781944888833095
98656.836480560697964
98664.48181925463723
98667.824983080514357
98668.279414762087981
98671.087911308728508
98681.559325683308998
98701.377152017652406
98726.818009357986739
98750.041164532580297
98763.80362108432746
98765.354076917283237
98757.256016440835083
98745.604415207621059
98737.245773988193832
98736.245695295321639
98741.827341451440589
98748.908846673439257
98750.576098321718746
98741.940519772761036
98723.282887495515752
98700.707480600933195
98683.412712273624493
98678.696835496099084
98687.787450411778991
98705.160731517156819
98721.942245853628265
98731.345803969627013
98732.446161432948429
98729.634012402995722
98757.739931157324463
98759.81896884602611
98761.556658191198949
98762.48323599381547
98762.46233576114173
98761.70393682908616
98760.640121020987863
98759.719632951833773
98759.220744684091187
98759.146297499566572
98759.231304981396534
98759.029915024046204
98758.084515989859938
98756.10925005156605
98753.168427256285213
98749.712576855963562
98746.488127249263925
98744.416021011769772
98744.496851462172344
98696.706782033899799
98704.306630835460965
98711.822661257436266
98714.511946812475799
98711.30760007572826
98706.133675860561198
98705.922505525770248
98716.023546734009869
98736.584372330151382
98761.956988090634695
98784.232174532167846
98797.404695967779844
98799.792588676456944
98793.802113442870905
98784.37360748568608
98776.306307062375708
98772.391711652860977
98772.411831002973486
98773.051155090026441
98769.351003913077875
98757.670783916168148
98738.348787661467213
98716.195902441846556
98698.394798849330982
98690.759324987855507
98694.476773826259887
98705.413930921422434
98716.893539562996011
98724.080917028273689
98726.453552017454058
98744.515974078385625
98745.149476541555487
98745.01284222479444
98744.139827195103862
98742.789023038116284
98741.339323397405678
98740.173209360567853
98739.537707813855377
98739.477010400223662
98739.858347942135879
98740.431695190491155
98740.927309419450467
98741.121263473003637
98740.942781145669869
98740.545595992560266
98740.342841268677148
98741.010037027153885
98743.320550489690504
98772.16054400181747
98772.979391960951034
98768.052659941808088
98759.179243031103397
98751.210041052851011
98749.995175795280375
98759.019741279582377
98777.281426251967787
98799.759366863159812
98820.254494518827414
98834.0456570503884
98839.257230485818582
98836.266975208738586
98827.256176071794471
98815.394692622649018
98803.908638727647485
98794.307832430742565
98786.210548687478877
98777.589223827715614
98766.517984655220062
98752.97346571162052
98738.736982071073726
98726.80037619342329
98719.778298514909693
98718.141110053154989
98719.97720871581987
98722.565907442127354
98724.3677832892281
98720.767082883234252
98721.035164115644875
98721.398581538611325
98721.917749536471092
98722.63705477489566
98723.545260389350005
98724.57235958831734
98725.600208528281655
98726.4871307235735
98727.117362490156665
98727.436365196306724
98727.498469278099947
98727.445030400966061
98727.506356113633956
98727.949705062928842
98729.062518973398255
98731.307384204599657
98735.228377393010305
98828.857143002722296
98816.975463589886203
98805.481968887950643
98798.969250224836287
98800.078977511075209
98809.173749093781225
98824.407811229015351
98842.287800145262736
98858.995629885816015
98871.038526033255039
98875.820867089685635
98872.235876602426288
98861.008817745867418
98844.408199908211827
98825.751112090438255
98808.264831691849395
98794.258596803963883
98784.476452142189373
98778.597168874184717
98775.138628178610816
98772.28518895029265
98768.564534929726506
98762.708833170167054
98754.280659467462101
98744.144638943791506
98734.305744112250977
98726.893763027066598
98693.585084697595448
98696.076991226829705
98699.895864274527412
98704.714649648478371
98709.931129076634534
98714.792930889641866
98718.586277627153322
98720.831891734240344
98721.404343057962251
98720.536258934938814
98718.75807694971445
98716.72884138963127
98715.141782078164397
98714.581097419693833
98715.468694734561723
98718.147927579484531
98722.804306659076246
98874.408521196150105
98868.549793681188021
98860.676666978251887
98854.874564212484984
98853.040303493413376
98855.512575250380905
98862.042926085036015
98871.884670854415162
98883.654878770204959
98894.625407552768593
98901.495453680778155
98901.389457770375884
98893.216586708978866
98878.079016662639333
98859.031023839619593
98839.623244790331228
98822.909822081885068
98810.788067853194661
98804.38460085420229
98803.942872019659262
98807.90568664939201
98812.869907938598772
98814.150750519955182
98807.692952840894577
98792.501199812279083
98771.252349230606342
98749.005100638605654
98673.93496118337498
98681.558370245184051
98690.490578218596056
98699.75419132738898
98708.141084727423731
98714.524560782578192
98718.173682727647247
98718.923140884406166
98717.170070182022755
98713.780611457143095
98709.829834833581117
98706.3817105871276
98704.258643736757222
98703.968690248584608
98705.796796141963569
98709.749195667158347
98883.099859356108936
98889.626024475539452
98894.468142137789982
98897.164445716814953
98897.402442139165942
98896.383662980035297
98896.644274567734101
98900.297615041738027
98907.025589855882572
98913.597407995781396
98915.624312931715394
98910.220686042870511
98897.811515995665104
98881.583485505165299
98865.513642885445734
98852.187015325325774
98842.581390800900408
98836.511274324337137
98833.927560157026164
98835.063688425012515
98839.267520818990306
98843.861924168260884
98844.250701940400177
98836.096935730645782
98817.891788792170701
98791.922594550589565
98763.528055687842425
98738.812379255774431
98669.41743283609685
98679.921066147711826
98690.500900725484826
98700.054214305855567
98707.559246477423585
98712.291071647807257
98713.987672902934719
98712.921526338264812
98709.847912241064478
98705.778261659710552
98701.786962044745451
98698.74686058635416
98697.223999341455055
98697.485534520179499
98699.487238447341952
98900.293403670730186
98916.115602920734091
98925.034218736022012
98925.242801057378529
98919.516575169109274
98913.416589050946641
98911.820643572005793
98915.363958631496644
98920.051043925923295
98920.148564174509374
98912.379438849675353
98898.097419212048408
98882.109427824514569
98869.328547777666245
98862.130894986097701
98859.919502440548968
98860.36783104747883
98861.534551145829028
98862.601497108858894
98863.493156250813627
98863.519556200742954
98860.175563471653732
98850.418763913461589
98832.300049812212819
98806.554939423134783
98777.257758002524497
98750.317130968076526
98671.251045136566972
98681.283531817432959
98690.503563308273442
98698.107850469168625
98703.473186031507794
98706.311979544378119
98706.718407763270079
98705.146930143469945
98702.277068527953816
98698.922031068097567
98695.799796732608229
98693.428065789630637
98692.118417816018336
98691.94940867065452
98932.455906368501019
98943.681657987821382
98941.378832334812614
98929.937203356617829
98917.702907410668558
98911.699989941538661
98913.401625100363162
98918.161408788088011
98919.129412141046487
98912.105727623027633
98898.337959394644713
98883.308174650621368
98873.032249111813144
98870.527727577718906
98874.666771664531552
98881.36174139585637
98886.219378768553725
98886.654158343691961
98882.813258228823543
98876.269064502834226
98867.79452117990877
98856.564028278924525
98840.391870814404683
98818.184776761539979
98791.81303271302022
98766.051230743061751
98670.809117722659721
98678.857912049716106
98686.131842653558124
98692.105802756806952
98696.402367607166525
98698.845556444386602
98699.49762077385094
98698.609848088221042
98696.614649238108541
98693.954100604518317
98691.052432610900723
98688.2689765823161
98685.84781831408327
98954.390999192561139
98947.98174565777299
98931.233245094495942
98913.93222673946002
98904.285186959081329
98904.675679918436799
98910.582172647977131
98914.361702969588805
98910.586102050656336
98899.260855312037165
98885.530448495715973
98876.317851127358153
98875.989723032573238
98884.02635958630708
98895.350974432207295
98903.307449189363979
98903.394741142736166
98895.598982449184405
98883.115655608984525
98869.817336764375796
98857.307686652478878
98843.88901697305846
98826.973097123525804
98806.040955988515634
98784.038886647947947
98666.101185554885888
98672.989658613107167
98679.611741118264035
98685.45474329389981
98690.06167496155831
98693.09099606811651
98694.384881526770187
98694.005739384170738
98692.128748713919776
98689.064644090889487
98685.141875890520168
98680.690191310102819
98951.281825103054871
98929.886024664359866
98908.212676890645525
98894.704435765073868
98892.641144320019521
98899.091173744411208
98906.460834256766248
98907.533454577787779
98900.223416874447139
98888.519708421939868
98879.457797554539866
98878.765067441301653
98887.421173649403499
98900.611012613895582
98910.464407268620562
98910.786010923387948
98900.690516986491275
98884.470119455392705
98868.239639998530038
98855.183664672396844
98844.554029279723181
98833.117198921070667
98818.491718523247982
98801.757597476491355
98931.261442555958638
98905.07587851730932
98886.531922610040056
98880.229528410767671
98884.899129675337463
98894.258415208372753
98900.629121606296394
98899.270664600582677
98891.219300759388716
98882.35647149385477
98879.628196514677256
98885.879125321065658
98897.766898091897019
98907.608146895843674
98908.398520747228758
98898.153097287009587
98880.924390551270335
98863.672795351580135
98851.26308987318771
98843.648303770693019
98837.334209437540267
98828.819898339323117
98817.83818577209604
98882.829406936521991
98870.083982670606929
98870.335171032580547
98879.429069946199888
98889.880346062942408
98894.763579513848526
98891.658898977970239
98884.117345213482622
98878.922107265214436
98880.627002955166972
98888.06235304682923
98895.388674140791409
98896.199477314119576
98887.819422145592398
98873.11465967244294
98858.064179064051132
98847.572267216906766
98842.667348578645033
98840.621336822994635
98837.77999561787874
98832.243602741669747
98876.816199677035911
98886.944939046356012
98889.139032914419658
98884.050656256382354
98876.887567357713124
98872.949264238515752
98873.822467730758945
98876.595481318669044
98876.763305216896697
98871.539605796526303
98861.858509303710889
98851.561155704577686
98844.65787258571072
98842.675231859175256
98844.119275759221637
98845.782050868307124
98844.853364720620448
98872.930762165022315
98863.472204852092545
98857.184070368894027
98854.641634163330309
98853.837790213918197
98852.25269909868075
98848.907773010549136
98844.889043113318621
98842.665592550169094
98843.969094200452673
98848.332480232420494
98853.382513221775298
98855.991642692722962
98852.018455213023117
98839.289813630530261
98831.965750018396648
98830.449698571756016
98832.681276300834725
98835.9384277650679
98838.826833187165903
98841.854247100665816
98846.452304190810537
98853.238700137153501
98860.733733598361141
98865.754947395122144
99183.466862514891545
99199.344887012979598
99219.438915546357748
99238.09877877542749
99247.914896414440591
99243.008469070875435
99220.173385062458692
99181.376489767659223
99131.731957343057729
99080.721137766857282
99040.14119102107361
99019.332537646667333
99020.127055982651655
99036.686713503921055
99057.921607645330369
99073.028668808707152
99077.19874238257762
99071.450291740678949
99060.477974464462022
99048.93380881784833
99183.286851969140116
99194.311340120344539
99211.223008038126864
99229.682377015895327
99243.305417365249014
99246.28290886056493
99235.870990991199506
99210.75407745881239
99171.637009860438411
99123.209331228179508
99072.775917825609213
99032.021255674684653
99011.872246155879111
99015.964105988954543
99038.063734392315382
99064.776076536232722
99083.486137378611602
99088.155308189219795
99080.877543556634919
99067.878509069530992
99054.509277357385145
99042.493067334682564
99198.395282138633775
99189.866622298199218
99191.819977654420654
99203.706171090176213
99221.814838890553801
99239.020957924658433
99247.953877200969146
99244.641653591475915
99228.987866158233373
99201.725918354379246
99162.973694598214934
99115.333319121535169
99065.444583746269927
99024.245112644333858
99004.632605462611536
99011.717277036179439
99038.99745313602034
99071.17685782618355
99093.054676959145581
99098.017620673839701
99089.189270653499989
99074.245291023835307
99059.28618059749715
99045.592866059931112
99031.658903811039636
99016.49224032330676
99233.037528972286964
99211.315972119802609
99198.527767471066909
99198.741268505240441
99211.575882608565735
99231.008852456041495
99247.284928352702991
99252.109855054572108
99243.193410110339755
99222.778982049014303
99193.572315624856856
99155.29141519012046
99108.482320232520578
99058.715743079548702
99017.226942722394597
98997.722872459082282
99007.503118729116977
99039.699608787355828
99076.856034348253161
99101.742392778367503
99106.793700057794922
99096.236879904259695
99079.522850915745948
99063.173507839717786
99048.151542188454187
99032.430662280254182
99015.824670788395451
98999.814463886650628
99273.453579494118458
99247.564477866064408
99221.953677217054064
99205.281301843235269
99203.944872843203484
99217.759995857733884
99238.682179257506505
99254.446134231446194
99255.890788847842487
99242.033848788996693
99217.545505527203204
99186.631230742656044
99148.813926534116035
99102.624346075201174
99052.703221720148576
99010.748734804234118
98991.372392698205658
99003.415876400104025
99040.070937171636615
99081.953851139784092
99109.390531978395302
99114.419818625072367
99102.169371008931194
99083.712585778121138
99066.309733437985415
99050.208954147456097
99032.986137845029589
99014.98141609117738
98998.630305285259965
98983.989131788315717
99303.517181343355333
99286.384167838827125
99259.168966009397991
99230.116807592101395
99210.071453039126936
99207.464208459336078
99222.40815772494534
99244.94774360912561
99260.594865277016652
99259.23153068011743
99241.186326932103839
99213.31864854170999
99180.92007922938501
99143.732294436718803
99097.888954797890619
99047.655957361290348
99004.94728277377726
98985.661638061283156
98999.613612317698426
99040.330220750794979
99086.299018613397493
99116.062057492497843
99120.837415960806538
99106.931432325931382
99086.973662560689263
99068.712739798691473
99051.822954017188749
99033.349973936550668
99014.145012558888993
98997.609482854590169
98983.542760333555634
98965.727473228529561
99312.105017619585851
99296.288038579616114
99267.969157467319747
99235.974020446388749
99213.169856456137495
99209.564553287156741
99225.644250134981121
99249.716478137648664
99265.392267654722673
99261.930092914597481
99240.577561035606777
99209.933130853416515
99176.66086587056634
99139.829569565525162
99094.555780108479667
99043.274926790239988
98999.788484775373945
98980.708642597746802
98996.406528211024124
99040.426318832556717
99089.883889611402992
99121.513692111053388
99125.967548966655158
99110.57258229488798
99089.342013376095565
99070.436767139093718
99053.012898979111924
99033.611968300450826
99013.446971443059738
98996.75122475293756
98983.351694994795253
98965.876280147931539
98935.723192268211278
98571.025311184770544
98584.80978519184282
98589.304617357047391
98594.081078007948236
98606.225940303396783
98615.144207532313885
99318.103770540066762
99303.049894334588316
99273.813804543431615
99239.617254641081672
99214.813290444202721
99210.599632224373636
99227.665243879426271
99253.093959417747101
99268.775100361483055
99263.850860069214832
99240.135745541992947
99207.618816212780075
99173.802656124578789
99137.200464532637852
99092.396483159885975
99040.385460134173627
98995.823147754272213
98976.822878065475379
98993.972150606263313
99040.485350021801423
99092.548097905819304
99125.448418095082161
99129.638172151462641
99113.112220384864486
99090.882543073981651
99071.537855708345887
99053.782946598890703
99033.787685874092858
99012.9109531899594
98996.098771662771469
98983.342423528025392
98966.280118025490083
98935.295379219576716
98890.410453885080642
98551.062708594094147
98571.247427912705461
98584.252734546404099
98588.429966089024674
98593.729883174950373
98607.006845840878668
98616.525122295395704
99321.175209001870826
99306.414458823594032
99276.637138724909164
99241.257135688123526
99215.371434417465935
99210.939902137601166
99228.617648690138594
99254.930032670439687
99270.57060489950527
99264.847320881133783
99239.891811457346193
99206.416018087023986
99172.345045209076488
99135.925852052765549
99091.251270383771043
99038.924508130614413
98993.301561195316026
98974.56941438895592
98992.707704526023008
99040.619950159933069
99094.134527219866868
99127.610651876530028
99131.660493634946761
99114.413951534632361
99091.633919766172767
99072.082474268419901
99054.165576157189207
99033.861034096829826
99012.612775461981073
98995.745407083799364
98983.486404071969446
98966.644132281522616
98935.158723371976521
98889.17747331962164
98842.198307184313308
98847.002345170971239
98847.353612451610388
98848.867007913228008
98850.641169086869922
98851.539216847799253
98850.544107060486567
98847.074250406745705
98841.146957807271974
98833.333061304074363
98824.463197134376969
98816.121696369795245
98592.209089771087747
98583.871567989641335
98575.164086059157853
98567.855165220462368
98564.764231500434107
98566.608963009857689
98570.271958825178444
98570.320079481534776
98563.263347529864404
98550.37787150699296
98537.967635190507281
98533.969746377231786
98543.092779294660431
98563.810878133794176
98588.104260804204387
98605.499133816920221
98609.570352162860218
98601.839709082632908
98590.40234446960676
98585.00036052352516
98591.954949570688768
98611.51050497785036
98638.297136093329755
98663.90890245596529
98680.954170380602591
98686.343123157857917
98682.345382526982576
98675.237175196205499
98672.223648335639155
98677.951019746207749
98691.968996392606641
98709.14935000333935
98723.276161404297454
98731.238338609909988
98734.961899060479482
98739.650519330403768
98850.704057298906264
98861.84947875184298
98869.296268649908598
98872.698871306187357
98872.303482570277993
98868.808787522517378
98863.314226519316435
98857.142050797134289
98851.513117864829837
98847.241377018493949
98844.620452956238296
98843.422002874780446
98843.030011284296052
98842.583533817611169
98841.117283742234576
98837.723761787783587
98831.784415277084918
98823.242806311420281
98812.734492170115118
98801.264409112409339
98790.576805889126263
98596.806226121436339
98594.178134585468797
98589.63351334699837
98585.603872243809747
98585.423342625945224
98589.281977390157408
98592.91124154512363
98590.942433970543789
98580.678075845600688
98564.822240942245116
98550.7442323519208
98545.771452893604874
98553.272703153386828
98570.690735330950702
98589.802349738311023
98601.54487173515372
98602.024886917031836
98594.692647522941115
98587.9369335823867
98590.571963763766689
98607.59579457489599
98637.501278973752051
98672.70277540825191
98702.688157998738461
98718.280210285331123
98715.629663149782573
98698.086278346178005
98674.690470481975353
98655.919256823894102
98649.249068521763547
98656.134766208080691
98671.832852088729851
98688.938498041039566
98702.272635815417743
98711.533413312397897
98720.428289253395633
98851.953295967148733
98862.482366766183986
98868.867349113817909
98871.018874358953326
98869.560454154270701
98865.476276053974289
98859.808250866219169
98853.541422747817705
98847.566542947810376
98842.574486604498816
98838.908348346260027
98836.476309758712887
98834.759971742430935
98832.944679159554653
98830.104441850693547
98825.418217378246482
98818.323153916891897
98808.704942336553358
98797.065264242512058
98784.33289988899196
98772.245165593718411
98600.676476815351634
98603.211773651753902
98605.327242407962331
98609.626247966938536
98614.975581427483121
98617.231206098396797
98612.013237939841929
98598.665743874444161
98581.738707991040428
98568.109929028258193
98563.441825587273343
98569.477222127330606
98582.331539390681428
98594.482660242239945
98600.386612521731877
98599.378928099686163
98595.762077999912435
98596.660835212780512
98608.826114207477076
98635.116186664439738
98672.301079568074783
98711.517222899245098
98741.653428038509446
98753.40819420585467
98743.148733560621622
98714.74757798347855
98678.403442074064515
98646.331478957741638
98627.740303366677836
98625.780077544652158
98637.159805176270311
98654.816239031264558
98672.413150455307914
98687.443804258335149
98858.719808432259015
98863.118853573949309
98863.478280688883387
98860.544892398480442
98855.430755407040124
98849.282294688135153
98843.021906535315793
98837.261109094499261
98832.349006300471956
98828.430098099197494
98825.449132046531304
98823.095004232716747
98820.783684667170746
98817.725667242018972
98813.121212988829939
98806.362286904797656
98797.226718968508067
98786.045697689507506
98773.553687295148848
98761.249240696663037
98601.49775565136224
98614.953893866608269
98626.288172700005816
98635.503714318911079
98641.235968757289811
98640.559023565263487
98631.969394768631901
98617.828170971624786
98602.854325361709925
98592.178851716933423
98589.161822232155828
98592.797924935890478
98598.635585341748083
98602.862732454887009
98604.474407885150868
98605.305375121926772
98609.202534007810755
98620.492244214605307
98642.31123097622185
98674.569418537401361
98712.959265980520286
98749.22152181751153
98773.913136297487654
98779.715446211805101
98764.064267146590282
98730.481469809354167
98687.875900162194739
98647.675847977021476
98619.48878662174684
98607.976433705698582
98612.174391854816349
98626.95782254198275
98646.218640600127401
98665.729605949221877
98850.2059945830988
98851.834292367289891
98849.878633031417849
98845.315220047661569
98839.265845869565965
98832.773821581242373
98826.636287650646409
98821.339834802871337
98817.082078676685342
98813.850045777959167
98811.471546700136969
98809.643988592797541
98807.903365382750053
98805.62392208352685
98802.11057914920093
98796.753149657641188
98789.220557570268284
98779.641024436219595
98768.488140876768739
98756.896809495665366
98625.87409325245244
98647.778214060599566
98661.675278912662179
98666.279026828357019
98661.943294947806862
98651.476442707222304
98639.396724677251768
98630.083929543761769
98625.578309554679436
98624.282642052159645
98622.923164874810027
98619.891199460675125
98616.675380316344672
98616.788348623391357
98623.651294627721654
98638.930626626868616
98662.03365721848968
98691.032137137255631
98723.116116859440808
98754.287320530129364
98779.617057270224905
98793.940788088017143
98793.191601261525648
98776.0054066315206
98744.586941116591333
98704.48775175321498
98663.63660802821687
98630.144598267012043
98609.678432952932781
98604.2203017546708
98612.193205587129341
98629.359908030761289
98834.084920575638535
98829.89282860950334
98823.83687551280309
98817.125748085411033
98810.718279777502175
98805.245070064789616
98801.035857578841387
98798.185477489460027
98796.611694094011909
98796.078669637106941
98796.210812894627452
98796.493486574356211
98796.291539942045347
98794.908249319763854