/*--------------------------------*- C++ -*----------------------------------*\
  =========                 |
  \\      /  F ield         | OpenFOAM: The Open Source CFD Toolbox
   \\    /   O peration     | Website:  https://openfoam.org
    \\  /    A nd           | Version:  12
     \\/     M anipulation  |
\*---------------------------------------------------------------------------*/
FoamFile
{
    format      ascii;
    class       volScalarField;
    location    "0.00542";
    object      pMean;
}
// * * * * * * * * * * * * * * * * * * * * * * * * * * * * * * * * * * * * * //

dimensions      [1 -1 -2 0 0 0 0];

internalField   nonuniform List<scalar> 
106891
(
98707.044061901193345
98707.751531932197395
98708.491633462079335
98709.266163543914445
98710.0769420669385
98710.925886833210825
98711.814299745252356
98712.743883656919934
98713.713537820833153
98714.723094217421021
98715.76067887035606
98688.310575232826523
98688.315240320618614
98688.321951094971155
98688.328431074492983
98688.332748580200132
98688.331633309862809
98688.319938644868671
98688.29199999984121
98688.244125844401424
98688.176952350579086
98688.095556458545616
98688.007383682503132
98687.918636548158247
98687.83232481921732
98687.749240315533825
98687.669670357267023
98687.594872413086705
98687.527241538831731
98687.469179799416452
98687.421691426483449
98687.383839094647556
98687.352984755692887
98687.326037732913392
98687.300705901914625
98687.27576205166406
98687.250320644379826
98687.223368335646228
98687.193968014602433
98687.161805316180107
98687.126927480116137
98687.089289689989528
98687.048301841408829
98687.002735849382589
98686.951789526734501
98686.89655745618802
98686.840476677636616
98686.788437987066573
98686.744916423602263
98705.5367002379935
98706.056735475591267
98706.600354225956835
98707.167797115442227
98707.759274044990889
98708.37504705246829
98709.01554394447885
98709.681438913365128
98710.373654799317592
98711.093403296836186
98711.842202378975344
98712.621842383698095
98713.434293065060047
98714.281537262926577
98715.165591909113573
98716.087753468586016
98717.049503775066114
98718.049536378806806
98719.087351554597262
98720.151613378795446
98688.171152161477949
98688.171473114896799
98688.169418154357118
98688.163295792910503
98688.151073785062181
98688.129361451094155
98688.093941913219169
98688.041971841797931
98687.974395416706102
98687.896137403615285
98687.813693123447592
98687.731925358384615
98687.65248060473823
98687.575130033132154
98687.499875349793001
98687.428007871945738
98687.362354130993481
98687.305946924636373
98687.260308350130799
98687.224821235256968
98687.196925109587028
98687.173443437932292
98687.152211730688578
98687.132023499332718
98687.111866235514753
98687.090433927631238
98687.066330850182567
98687.038238082503085
98687.005048925566371
98686.966095684838365
98686.921081603184575
98686.870208288964932
98686.814586356747895
98686.756663170555839
98686.700293500922271
98686.649860606121365
98709.154897694068495
98709.727342853497248
98710.322075751653756
98710.939140797752771
98711.578694463969441
98712.241014869345236
98712.926517084779334
98713.635840652772458
98714.369907209300436
98715.129932823067065
98715.917423962862813
98716.734145044072648
98717.582041453395505
98718.463021876319544
98719.378999328037025
98720.331207234863541
98721.321024168995791
98722.347194340443821
98723.409081669698935
98724.495897489425261
98687.996520040804171
98687.985969984350959
98687.972325248760171
98687.954472020908725
98687.93115196468716
98687.900228626400349
98687.858830233613844
98687.805260704582906
98687.74061927938601
98687.668777841492556
98687.594512841940741
98687.52103207501932
98687.448951748898253
98687.377552544028731
98687.306756684483844
98687.238172498793574
98687.175069706732756
98687.120943085566978
98687.07747819913493
98687.0438323628332
98687.017367630876834
98686.995036114225513
98686.974488832245697
98686.954786446221988
98686.935691511971527
98686.916701376641868
98686.896377295328421
98686.872501769161317
98686.84257556402008
98686.80464106008003
98686.758225003111875
98686.704827312787529
98686.647767913527787
98686.591214510975988
98686.538971920890617
98686.493866654564044
98713.400062567787245
98714.040849472337868
98714.702645830213442
98715.385545313649345
98716.089880459272536
98716.816219390631886
98717.565328743963619
98718.338158158629085
98719.135883684226428
98719.959938877640525
98720.811941799242049
98721.693621343409177
98722.606571076175896
98723.552355736101163
98724.531959754938725
98725.546549799910281
98726.594929299579235
98727.676498534841812
98728.781252253174898
98687.76626409914752
98687.73948850351735
98687.710109105173615
98687.67668966994097
98687.637358364008833
98687.590531988782459
98687.535978795887786
98687.475377224254771
98687.411802469490794
98687.348120361144538
98687.285172417745343
98687.221737390573253
98687.156440947946976
98687.089551211931393
98687.023789936880348
98686.96344300203782
98686.912220321362838
98686.871523591456935
98686.839942247010185
98686.813884046059684
98686.789525394182419
98686.764720306135132
98686.739748442501877
98686.716250430908985
98686.695405106685939
98686.676688374907826
98686.657267658389173
98686.632666942270589
98686.599086851449101
98686.555582517496077
98686.504659184298362
98686.451191034182557
98686.400310267577879
98686.355375311773969
98716.388205988041591
98717.050338978806394
98717.732203972933348
98718.433913519940688
98719.155775018938584
98719.898289504897548
98720.662121594607015
98721.448079205001704
98722.257152842968935
98723.090475369812339
98723.949280504282797
98724.834836360634654
98725.748494205501629
98726.69151232909644
98727.665148123254767
98728.670139978828956
98729.707353064208291
98730.77557169260399
98731.874191753187915
98732.993978685030015
98687.531865530880168
98687.492145185504341
98687.452173986341222
98687.409920299178339
98687.363501704210648
98687.312113804553519
98687.256767930331989
98687.199823816816206
98687.143787237422657
98687.089434769935906
98687.035052742765401
98686.977967153070495
98686.916703346476424
98686.852360970064183
98686.788772334490204
98686.730874382410548
98686.682406982494285
98686.643991112170625
98686.613050112006022
98686.584974259341834
98686.555529808552819
98686.523477842187276
98686.491037746789516
98686.461976590013364
98686.439010378308012
98686.421852084022248
98686.406750252572238
98686.387868434860138
98686.36024752749654
98686.32263258198509
98686.278096965950681
98686.232123219670029
98686.189576469783788
98720.654751010195469
98721.373994540597778
98722.112030800170032
98722.869369054009439
98723.646764030883787
98724.445144555691513
98725.265532684279606
98726.108920776183368
98726.976178157070535
98727.868094559104065
98728.785444167486276
98729.729129856263171
98730.700053193548229
98731.699220678783604
98732.727208033931674
98733.78467921151605
98734.870541595038958
98735.984336094392347
98737.117724341660505
98687.236679619018105
98687.18607432738645
98687.134703916075523
98687.08038659520389
98687.023335383288213
98686.966363365019788
98686.912774910291773
98686.863984552779584
98686.818372522611753
98686.771849092227058
98686.720204732235288
98686.662023268829216
98686.599710254668025
98686.538225728203543
98686.482768941074028
98686.436217151305755
98686.397815777134383
98686.363907482387731
98686.330230044477503
98686.293870725276065
98686.254849049990298
98686.216290824973839
98686.182743214216316
98686.157583110019914
98686.140788970296853
98686.128410112505662
98686.114291129008052
98686.093339190323604
98686.064174956190982
98686.02925881111878
98685.993070452823304
98685.959475709678372
98724.18449949270871
98724.938275969223469
98725.710116791044129
98726.500741247364203
98727.311074778335751
98728.142137409260613
98728.99487614845566
98729.870112772652647
98730.768561299017165
98731.690897487380425
98732.637677960388828
98733.609423594461987
98734.606609782538726
98735.629797815796337
98736.67932003698661
98737.755746667287895
98738.85820996730763
98739.986388235745835
98741.132792309173965
98686.939649695137632
98686.87678402144229
98686.812564066771301
98686.748914081457769
98686.689600070792949
98686.63767687685322
98686.593089461850468
98686.552451265757554
98686.510518540162593
98686.462982480181381
98686.408574773391592
98686.349199028045405
98686.288959149445873
98686.232375453328132
98686.182031863034354
98686.137799410440493
98686.097490448883036
98686.05806202054373
98686.01704632761539
98685.974446779931895
98685.933219984537573
98685.897619036652031
98685.870728761015926
98685.852671643137001
98685.840075871106819
98685.827797066202038
98685.811588213822688
98685.789992602047278
98685.764433486780035
98685.737811937258812
98728.403323080579867
98729.207904733892065
98730.031032752245665
98730.87350351717032
98731.736110097685014
98732.619609458270133
98733.524708348879358
98734.452007166779367
98735.402041150271543
98736.375261142209638
98737.372155359465978
98738.393058628236759
98739.438335624494357
98740.508088076341664
98741.602582113817334
98742.720918609207729
98743.862878400424961
98745.021936140139587
98686.631405783642549
98686.556369228477706
98686.486627187638078
98686.425188642504509
98686.373398009352968
98686.329850918118609
98686.290451490101987
98686.249984566442436
98686.204344958459842
98686.151933323941194
98686.093955183154321
98686.033359719003784
98685.973692644416587
98685.91802124059177
98685.867719863294042
98685.822209654201288
98685.779789729524055
98685.738764209570945
98685.698606197038316
98685.660462563013425
98685.626216859338456
98685.597468563733855
98685.57464047348185
98685.556556642535725
98685.540787300808006
98685.525123012688709
98685.508706814202014
98685.491796385453199
98731.741330057382584
98732.577886970510008
98733.432483872733428
98734.305737139045959
98735.198244189508841
98736.110577432773425
98737.043331647262676
98737.997089796044747
98738.972434485971462
98739.969854662849684
98740.989805966673885
98742.032613574832794
98743.098613121939707
98744.187839595892001
98745.300409322269843
98746.43540975965152
98747.592415095656179
98748.765281428874005
98686.343342207212118
98686.269732264830964
98686.206818933016621
98686.153853378244094
98686.108257904052152
98686.065954446792603
98686.022666210279567
98685.975120992748998
98685.921913866710383
98685.863197846265393
98685.800509129781858
98685.736538110635593
98685.674374580848962
98685.616845890253899
98685.565589395584539
98685.520710114069516
98685.481032050389331
98685.444887033445411
98685.410807753141853
98685.377955128904432
98685.34632374040666
98685.316633857073612
98685.289891889144201
98685.267110161628807
98685.249170912080444
98685.236288100830279
98685.227498461172218
98735.803646446758648
98736.690507057501236
98737.594813072471879
98738.516639560737531
98739.456265401226119
98740.4142466927442
98741.391326415643562
98742.388389842220931
98743.406274572378607
98744.445771243888885
98745.507387755962554
98746.591509213423706
98747.698171700365492
98748.827354642446153
98749.978108623530716
98751.149824462569086
98752.337030883689295
98686.254478974820813
98686.169701336577418
98686.094406567703118
98686.028010640031425
98685.968748999846866
98685.914578509342391
98685.86314712613239
98685.811929246250656
98685.758659628234454
98685.70159128269006
98685.640330342386733
98685.576370760667487
98685.512589127087267
98685.451940967992414
98685.396755400841357
98685.348078352297307
98685.305508036675747
98685.267597135170945
98685.232546303770505
98685.198474367294693
98685.163693957758369
98685.127272705940413
98685.089802650269121
98685.053900569255347
98685.023410850699292
98685.001692941194051
98684.990181578905322
98739.7615460955858
98740.695856934791664
98741.646481623247382
98742.613473926845472
98743.597123633167939
98744.598008236222086
98745.617010368296178
98746.655162001407007
98747.713566406120663
98748.793091750529129
98749.894356133343535
98751.01741590956226
98752.162033595173853
98753.327112706334447
98754.511669767118292
98755.710809541531489
98686.154414467775496
98686.071937415530556
98685.992289727204479
98685.916385285556316
98685.845582449517678
98685.780889607878635
98685.721748589872732
98685.66559750509623
98685.60911280963046
98685.54990572296083
98685.487684623236419
98685.424480457877507
98685.36329828898306
98685.306569718217361
98685.255184257272049
98685.208655183101655
98685.165654409458512
98685.124796753996634
98685.085060313344002
98685.045523131237132
98685.00516713023535
98684.963436932797777
98684.921323878923431
98684.881720021818182
98684.848799944651546
98684.826580358465435
98684.81730678481108
98684.82047028276429
98743.1754127854947
98744.148901711901999
98745.137883729315945
98746.142545012859046
98747.163330671013682
98748.20101012851228
98749.256520616501803
98750.330881130546913
98751.424913253606064
98752.539189806775539
98753.673842104370124
98754.828728396285442
98756.002966106214444
98757.195566703070654
98758.402560936636291
98685.999857328250073
98685.916694472864037
98685.832644584515947
98685.751787563145626
98685.678028558686492
98685.612652041570982
98685.553395284456201
98685.496075429487973
98685.437252738804091
98685.376204781365232
98685.315033839578973
98685.257042432931485
98685.204486151924357
98685.157303512576618
98685.113525148874032
98685.070666511935997
98685.027160806115717
98684.982615169996279
98684.937358817289351
98684.892132549866801
98684.847497663417016
98684.804410212294897
98684.765094961825525
98684.732849363528658
98684.711248984443955
98684.70271954438067
98684.707494923117338
98746.072743566081044
98747.079174877508194
98748.100769431519439
98749.137835057830671
98750.190909835800994
98751.260628121672198
98752.347750078974059
98753.452931879233802
98754.576719197648345
98755.719326441947487
98756.880665807722835
98758.060119845336885
98759.256846671953099
98760.46765170028084
98685.853657655563438
98685.761964059667662
98685.673589589685434
98685.594441810200806
98685.526492125660297
98685.467136889274116
98685.411207227021805
98685.354346407882986
98685.295365692218184
98685.236250131652923
98685.180384362683981
98685.130141945031937
98685.085335001684143
98685.043105906093842
98684.999817377567524
98684.953269766047015
98684.903531505013234
98684.852412345193443
98684.802443570471951
98684.75568940024823
98684.713522826132248
98684.677000777752255
98684.647669115423923
98684.627834734870703
98684.619825664107339
98684.624553444169578
98748.774142636408214
98749.811086677727872
98750.862945391927497
98751.929909424638026
98753.012289360733121
98754.110553672377137
98755.225154730855138
98756.356544725844287
98757.505009996471927
98758.670666331512621
98759.853262542834273
98761.05217878545227
98762.264962077591917
98685.697049591457471
98685.603016526671126
98685.519821976224193
98685.450004303798778
98685.391146789421327
98685.337479726134916
98685.283419010564103
98685.226790166751016
98685.169348314841045
98685.114752686073189
98685.065840294773807
98685.022522155646584
98684.981547656585462
98684.93841073870135
98684.890293728007236
98684.837315552882501
98684.782335064504878
98684.729553426630446
98684.682527480385033
98684.642864956724225
98684.610339098260738
98684.584733292780584
98684.567094310259563
98684.559300521257683
98684.562646955615492
98751.304121087596286
98752.369145684351679
98753.448331647450686
98754.541622710617958
98755.649208210903453
98756.771403973776614
98757.90866464508872
98759.061435736759449
98760.230015285866102
98761.414484660272137
98762.614506116209668
98763.828352603857638
98685.540455595342792
98685.453957180274301
98685.383022380163311
98685.325408399599837
98685.275237631445634
98685.225790166194201
98685.173125580768101
98685.117948910454288
98685.063854708569124
98685.014322861956316
98684.970153961447068
98684.928851984950597
98684.885824269149452
98684.837522925328813
98684.783724062406691
98684.727660018063034
98684.674432395389886
98684.628520251557347
98684.591871909389738
98684.563659525956609
98684.542251059785485
98684.527085264184279
98684.519276398714283
98684.520239266916178
98685.392368079672451
98685.319204631770845
98685.261478933767648
98685.213414682933944
98685.167917377199046
98685.119751121819718
98685.067704005909036
98685.014090335011133
98684.962708496081177
98684.915993221089593
98684.873049817455467
98684.83007088395243
98684.783391772347386
98684.732161839623586
98684.679245206410997
98684.629522695584456
98684.587625381842372
98684.555524525072542
98684.532061564386822
98684.514516857234412
98684.501191217568703
98684.492522107626428
98684.490002200662275
98685.205346146962256
98685.157230178243481
98685.114356617486919
98685.0701610276883
98685.021476320602233
98684.969147277850425
98684.916748703486519
98684.867740678062546
98684.822973951362655
98684.780179557317751
98684.736228123540059
98684.689857586665312
98684.642728932012687
98684.59870045442949
98684.561609774580575
98684.533390342679922
98684.513114466361003
98684.49800638348097
98684.4858535072417
98684.476250363528379
98684.47018092480721
98684.97336964920396
98684.922604104154743
98684.869406124926172
98684.817989420305821
98684.770940896909451
98684.728177763230633
98684.687757327308645
98684.648011921497528
98684.609167962567881
98684.573224425635999
98684.542615547019523
98684.518703854817431
98684.500950352055952
98684.487109741647146
98684.474951099167811
98684.463633431281778
98684.45384419367474
98684.724941904976731
98684.682827753771562
98684.646483345801244
98684.614319861604599
98684.584930776734836
98684.557896351121599
98684.533781405523769
98684.513468635734171
98684.496982440337888
98684.483029582042946
98684.46969395900669
98684.455980461352738
98684.442381423170445
98684.63838611166284
98684.606654136689031
98684.582046265291865
98684.56167773672496
98684.543082248346764
98684.52534626556735
98684.508570739853894
98684.493060229287948
98684.478406841139076
98684.463438270686311
98684.447266897550435
98684.43019408667169
98692.465217590026441
98692.469293585367268
98692.461708590679336
98692.440362123394152
98692.40726941304456
98692.368120130209718
98692.330734184579342
98692.303259834196069
98692.291725787203177
98692.298584113756078
98692.320840260654222
98692.34981969546061
98692.373365597537486
98692.379831787096919
98692.362679894635221
98692.322172987100203
98692.26293415640248
98692.190227735278313
98692.1078282064409
98692.017126350998296
98692.435838907593279
98692.449172004009597
98692.453114319141605
98692.444293415799621
98692.422419707494555
98692.39106818268192
98692.356162000040058
98692.32441502904112
98692.302671984565677
98692.296152479670127
98692.307281237939605
98692.333703178112046
98692.366951778356452
98692.393985955248354
98692.40194608886668
98692.383670817434904
98692.339821512272465
98692.276268525514752
98692.199538333778037
98692.113958061992889
98692.020847762774792
98691.919456400442868
98692.385037838117569
98692.403695608765702
98692.423750797126559
98692.438376228441484
98692.441910568726598
98692.431594266352477
98692.40883543973905
98692.378601369637181
98692.347316457584384
98692.320622129642288
98692.303777887209435
98692.301659413002199
98692.316725612356095
98692.347146076732315
98692.384686711870017
98692.415400761048659
98692.425099862288334
98692.405933730638935
98692.359092367012636
98692.291793601063546
98692.211709125360358
98692.123500432979199
98692.028255508455914
98691.925068112002918
98691.813088306691498
98691.692595482803881
98692.362034159406903
98692.370399477804312
98692.388784948227112
98692.409982013501576
98692.425598832021933
98692.428872653661529
98692.417185928468825
98692.39330924594833
98692.363998727421858
98692.335832786033279
98692.313488128784229
98692.300989895797102
98692.30256692013063
98692.320899936297792
98692.354596840421436
98692.395657562228735
98692.429566140475799
98692.440643326321151
98692.420295847579837
98692.370263384567806
98692.299061443089158
98692.215605992852943
98692.125062760984292
98692.02816413292021
98691.923616667438182
98691.810770992509788
98691.689948262894177
98691.56065036621294
98692.361886029728339
98692.352104638397577
98692.358961385325529
98692.377977661570185
98692.400936840145732
98692.417901001521386
98692.420934860725538
98692.407813643090776
98692.382898001320427
98692.354207153810421
98692.328488084458513
98692.309632994991262
98692.300440800070646
98692.304784131512861
98692.325748295537778
98692.362490273764706
98692.407133877815795
98692.444196096301312
98692.456735485364334
98692.435576204021345
98692.382944806930027
98692.308619357208954
98692.222482283425052
98692.130049994404544
98692.031836792157264
98691.92624225615873
98691.812699112429982
98691.691622686455958
98691.562175196741009
98691.422246432455722
98692.385438825964229
98692.355644239010871
98692.34310547131463
98692.348197782965144
98692.36722820380237
98692.391352950333385
98692.408922806062037
98692.411311076910351
98692.396701474004658
98692.3705000494665
98692.341995390641387
98692.318164949450875
98692.30214676806645
98692.295771634686389
98692.302338792447699
98692.325370426857262
98692.36449682280363
98692.411929462105036
98692.451773597436841
98692.465646860204288
98692.443538626568625
98692.388285870692926
98692.310919243973331
98692.222391338000307
98692.128444208879955
98692.029224506622995
98691.922749970282894
98691.808512609553873
98691.687347677769139
98691.558125754614593
98691.418010917172069
98691.266829066502396
98692.386806694776169
98692.354471080936491
98692.339523430535337
98692.343496900633909
98692.363065344310598
98692.388553850963945
98692.407126883495948
98692.409384111801046
98692.393666783085791
98692.366444028783008
98692.337942181053222
98692.315503579869983
98692.301469703335897
98692.296933670688304
98692.304908045480261
98692.329536617078702
98692.370973183889873
98692.421097087644739
98692.463114002050133
98692.477879859230598
98692.455081641266588
98692.397925782570383
98692.318254123762017
98692.227918016025797
98692.13285611718311
98692.032943943981081
98691.925875091706985
98691.811241697141668
98691.689995831155102
98691.560769905787311
98691.420248176713358
98691.268201064885943
98691.109593708722969
98704.813979236219893
98704.448888580474886
98704.075507329660468
98703.698159745807061
98703.315365897098673
98702.925114725032472
98692.385520330368308
98692.351600950816646
98692.335109485138673
98692.33821827081556
98692.358046093795565
98692.384354839727166
98692.403428851263016
98692.40532089988119
98692.388515503160306
98692.360240598281962
98692.331623381687677
98692.310077883856138
98692.297363229925395
98692.294078436258133
98692.303034863885841
98692.328515896806493
98692.371330537149333
98692.423395457983133
98692.467152427750989
98692.482712067605462
98692.459347927389899
98692.400570201585651
98692.319056040374562
98692.227275182347512
98692.131426852138247
98692.031108841052628
98691.923670785821741
98691.808707477597636
98691.68743171110691
98691.55833914532559
98691.417657118538045
98691.265069551329361
98691.105835214213585
98690.948826498759445
98705.162830262212083
98704.812436942665954
98704.447265099806827
98704.074058045414858
98703.696971970552113
98703.314001338687376
98702.922890141009702
98692.391767273162259
98692.3570186465804
98692.33969847363187
98692.342392620223109
98692.362516652821796
98692.38938947020506
98692.408853895583889
98692.41068511827325
98692.393325403463678
98692.36451692810806
98692.335878891084576
98692.314738167406176
98692.302638586232206
98692.299933413465624
98692.309370866816607
98692.335226928917109
98692.379029220333905
98692.432412889436819
98692.477077219882631
98692.492905384671758
98692.469170259268139
98692.409511388104875
98692.326999602839351
98692.234476481957245
98692.138309975664015
98692.037880571282585
98691.930261519562919
98691.815169322158908
98691.693936739698984
98691.564894152223133
98691.424069871616666
98691.271168588966248
98691.111537080607377
98690.954445006893366
98690.807196697991458
98708.004236952707288
98708.713544188271044
98709.455884160357527
98710.231769211837673
98711.041994446597528
98711.887781133744284
98712.770155600548605
98713.690993953641737
98714.64973918350006
98715.647131383608212
98716.671973623262602
98689.538572335790377
98689.497502434809576
98689.455022245456348
98689.411824668466579
98689.367291746893898
98689.319679175037891
98689.267913514428074
98689.213172299598227
98689.159131909007556
98689.110164507394074
98689.06869445052871
98689.032810265067383
98688.997161468403647
98688.955824837918044
98688.905251166288508
98688.846989941826905
98688.787404582093586
98688.734218330850126
98688.692673878817004
98688.663349929018295
98688.642032708245097
98688.622104491791106
98688.598057212759159
98688.567456138145644
98688.531471112335566
98688.493927060553688
98688.459247026752564
98688.430068778354325
98688.40589225012809
98688.383495095200487
98688.35865345937782
98688.32848553439544
98688.29299683534191
98688.254712601599749
98688.21666415661457
98688.180306287074927
98706.14020438757143
98706.614833377228933
98707.110839926506742
98707.630145826144144
98708.174661998855299
98708.746059609547956
98709.345689842099091
98709.97459801149671
98710.633560852438677
98711.323074934145552
98712.043426753443782
98712.794811865780503
98713.577546157626784
98714.392160290473839
98715.239418444252806
98716.120567508041859
98717.036678408243461
98717.989601057808613
98718.978871289466042
98720.005223603482591
98721.058334725370514
98689.448183097454603
98689.400056551326998
98689.348567782333703
98689.294850662015961
98689.238662744653993
98689.178839364103624
98689.115123876108555
98689.049943424601224
98688.987949024914997
98688.933869575455901
98688.889552021559211
98688.852639336299035
98688.817905643940321
98688.779840272502042
98688.73556102233124
98688.686859035064117
98688.63957445260894
98688.599667803253396
98688.570096854542498
98688.549479733745102
98688.532415241919807
98688.511575808021007
98688.481383034784812
98688.440368941897759
98688.391523028156371
98688.34118280284747
98688.296641303459182
98688.262744796767947
98688.239726359766792
98688.22364385407127
98688.20846014401468
98688.188903414440574
98688.162948796016281
98688.132018431118922
98688.099032342142891
98688.065982496613287
98709.694072661790415
98710.219812695533619
98710.766459792692331
98711.335918486249284
98711.929914068197832
98712.549885058018845
98713.196904528464074
98713.871709238213953
98714.574792958374019
98715.306530411020503
98716.067245636048028
98716.857257829949958
98717.676915173986345
98718.526790278192493
98719.407662751938915
98720.320741441726568
98721.267043461790308
98722.248296976802521
98723.264074680293561
98724.315056465537054
98725.391831268148962
98689.272624669916695
98689.213509346765932
98689.1497887699079
98689.08191928191809
98689.009967151170713
98688.935250180045841
98688.861475491299643
98688.793822744177305
98688.736469335592119
98688.690405083907535
98688.652919506334001
98688.619103213583003
98688.584541193340556
98688.547703548698337
98688.510502893434023
98688.476838688060525
98688.449848385425867
98688.429953630533419
98688.414272017675103
98688.396874476864468
98688.370756162970793
98688.331354205642128
98688.278778160354705
98688.217728560426622
98688.156124652188737
98688.102715796296252
98688.063501867494779
98688.039529124303954
98688.02696910785744
98688.019171010397258
98688.009512856529909
98687.994077265117085
98687.972539929382037
98687.946747977359337
98713.823137344952556
98714.417072408992681
98715.033347509583109
98715.673542172386078
98716.338836576411268
98717.030019708501641
98717.747568452745327
98718.491758979464066
98719.262809222491342
98720.060967209021328
98720.886557985315449
98721.7399814852688
98722.621797798739863
98723.532727308949688
98724.473927512954106
98725.446412877456169
98726.451854317143443
98727.489941800959059
98728.561280911031645
98729.657337105993065
98689.114767147475504
98689.050771486290614
98688.978404509354732
98688.899553690760513
98688.816659976713709
98688.733172287800699
98688.65379148577631
98688.583144575095503
98688.523995991723496
98688.476341949324706
98688.437548912246712
98688.404064712594845
98688.373616469922126
98688.345813563762931
98688.32135252970329
98688.300890098660602
98688.283995676305494
98688.268614873217302
98688.251220898077008
98688.22709889865655
98688.191515063736006
98688.141960921333521
98688.079919562776922
98688.01064974234032
98687.941937721043359
98687.882288971697562
98687.838037227571476
98687.810898947369424
98687.797926353348885
98687.793244007349131
98687.790356505443924
98687.784235007289681
98687.772517173420056
98687.755223525819019
98717.403769382945029
98718.042079906386789
98718.70224149855494
98719.385690538227209
98720.093355841978337
98720.825734841506346
98721.583066103499732
98722.365480266162194
98723.173092040233314
98724.006048740557162
98724.86459822638426
98725.749106312563526
98726.660156666272087
98727.59842631930951
98728.564909938111668
98729.560452572710346
98730.586518819764024
98731.642922555402038
98732.730358772241743
98733.841296430749935
98688.861898398128687
98688.783611043647397
98688.696622600458795
98688.606114732465358
98688.517649222136242
98688.436434639297659
98688.36590374338266
98688.306842031670385
98688.258046002869378
98688.217593038600171
98688.184323701498215
98688.158107444600319
98688.138768091564998
98688.12502149726788
98688.11390771153674
98688.101583312673029
98688.084290918239276
98688.05912766988331
98688.023790078616003
98687.97680018718529
98687.918345642086933
98687.850910953231505
98687.779167533444706
98687.709177466051187
98687.647333301298204
98687.598829857277451
98687.56615907199739
98687.54847327421885
98687.542012609730591
98687.541329168816446
98687.540919146194938
98687.536677900861832
98721.622953726604464
98722.324384663792443
98723.048457219701959
98723.795951042280649
98724.567139961756766
98725.361963693227153
98726.180250885867281
98727.021875301405089
98727.886863007821376
98728.775454765360337
98729.688001922491821
98730.625056590070017
98731.587254042970017