/*--------------------------------*- C++ -*----------------------------------*\
  =========                 |
  \\      /  F ield         | OpenFOAM: The Open Source CFD Toolbox
   \\    /   O peration     | Website:  https://openfoam.org
    \\  /    A nd           | Version:  12
     \\/     M anipulation  |
\*---------------------------------------------------------------------------*/
FoamFile
{
    format      ascii;
    class       volScalarField;
    location    "0.00542";
    object      rho;
}
// * * * * * * * * * * * * * * * * * * * * * * * * * * * * * * * * * * * * * //

dimensions      [1 -3 0 0 0 0 0];

internalField   nonuniform List<scalar> 
106891
(
1.1490476348158165099
1.1490961930336003327
1.1491169442577930937
1.1491052562150034788
1.1490595690452429789
1.1489813315802461791
1.1488800088748554185
1.1487614006268889177
1.148648531615460211
1.1485478602725545105
1.1484810601063542013
1.1466870099134991445
1.1465263100593485746
1.1464259158637963854
1.1463686365330065797
1.1463586166285180123
1.1464240224280801694
1.1465907490259483748
1.1468482149713561391
1.1471406353595257066
1.1473904514060611071
1.1475424987397286891
1.1475902448318131555
1.1475709215942901942
1.1475315169002191507
1.1474976859455783273
1.1474659038657861743
1.1474183450744817048
1.1473476905867672215
1.1472675283248561229
1.1472053145194762713
1.1471873491260053957
1.1472243638320391845
1.1473077021532747111
1.1474198160593505058
1.1475476394882169195
1.1476862658925301997
1.1478326739202022733
1.1479774739258852279
1.1481071928033406149
1.148217678825840915
1.1483198498267295218
1.1484310491497711215
1.1485570500383412984
1.1486791214952838391
1.1487589158160051994
1.1487618531790779741
1.1486808615930335087
1.1485452744301998251
1.1485604402076059483
1.14854535495289789
1.148547587447423135
1.1485721330881606406
1.1486197701531244419
1.1486879982847482129
1.1487712282432898103
1.1488616182929043408
1.1489492524464901546
1.149022590348836248
1.149070480642388814
1.1490845056447913652
1.1490597153794044338
1.1489962797170902853
1.1488981342182122969
1.1487766544011472902
1.1486405902930123535
1.1485129825832030015
1.1484021900733087929
1.1483296906932136672
1.1465693658608073768
1.1464982115245681005
1.146476019717227457
1.1464891169548026006
1.1465537130813969746
1.1466946297257487597
1.146909112725232438
1.1471512312120721866
1.1473547252682978481
1.1474749632517662334
1.1475129830323980151
1.1475071543372992178
1.1475006343934277542
1.1475118459669826354
1.1475294165682217162
1.1475271645083329197
1.1474889611214851293
1.1474237654874503978
1.1473581820279155075
1.1473205384795213124
1.1473264888019887309
1.1473733590450527764
1.1474461619225186926
1.1475326275242387908
1.1476305097352801354
1.1477430345486492325
1.1478712873658105664
1.1480102071494329152
1.1481533415502285234
1.1482968641656077224
1.1484361653874624043
1.1485605951421073989
1.1486506949155090851
1.1486835026503146029
1.1486455095806507032
1.1485461000994581227
1.1484938257082415447
1.1484838191641768557
1.1484896928655490278
1.1485164549951405455
1.1485657912297702055
1.1486358569811780939
1.1487204049675512341
1.148810479895942871
1.1488957048051728904
1.1489650622718512452
1.1490077040855923851
1.1490155004242461612
1.1489830972864545355
1.1489112969077226456
1.1488052356801816689
1.1486771487755895738
1.1485380444059607452
1.1484096146204323396
1.1483008251416841894
1.1482309478315928519
1.1467049087198759594
1.1466515560316230538
1.1466398232351462383
1.1466529896436963298
1.1467030958436084109
1.1468103669679428069
1.1469747675018038269
1.1471603802443131048
1.147315882722884206
1.1474104882533100458
1.147452931109674612
1.1474795303732319152
1.147525234218213841
1.1475966438907874156
1.1476676138718429065
1.1477020370575252706
1.1476802852534493393
1.1476138757793470369
1.1475370113962077845
1.1474857964908011798
1.1474789392750301964
1.1475119875586006213
1.1475639713270586739
1.1476144389664979517
1.147659179730808221
1.1477099711967211348
1.1477863051306820275
1.1479020614043642379
1.1480552783283650697
1.1482280359493317601
1.1483897004349152837
1.1485073292114498233
1.1485596337635086694
1.148543850455296278
1.1484758171007649619
1.1483836126440389869
1.1484452857281659544
1.1484582098056015376
1.1484871670551810574
1.1485318439913239086
1.1485907802469057515
1.1486600235336290599
1.148733335136579381
1.1488025667355938886
1.1488585028508409014
1.1488916301812150955
1.1488949877378935582
1.1488630693680486061
1.1487962083840990157
1.1486984484679383378
1.1485803163175154484
1.1484533642809418019
1.1483370651227582382
1.1482414091060300088
1.1481830121759946106
1.1469490894469860365
1.1469072510831770373
1.1468925837948018565
1.146915890193078269
1.1469879037197925342
1.1470999870488818306
1.1472222621302328172
1.1473228540516127172
1.1473912625591715653
1.1474471947471427402
1.1475230992090343918
1.1476343636847610163
1.1477643722778192448
1.1478718001250418634
1.1479171610882084043
1.1478881525652915307
1.1478085099890835696
1.1477237003271938409
1.1476758757851983628
1.1476817431118977453
1.1477256825808739293
1.1477724075741768672
1.1477885280478929975
1.1477659451258253043
1.1477301427812998114
1.1477262606891482921
1.1477925357634728432
1.1479343362096068315
1.1481183822095120117
1.1482891898224363292
1.1483959384622595135
1.1484181800361255021
1.1483731154889598169
1.1483000693990832453
1.1484234139187230461
1.1484287128496211139
1.1484457188586167931
1.1484728418443215237
1.1485076109155818447
1.1485480147002291584
1.1485917448269333807
1.1486361747746989259
1.1486776195965835434
1.1487111617919933959
1.1487301651746657516
1.148729470427706234
1.1487035191523571331
1.1486518542224586348
1.1485764362500539004
1.1484843487352227598
1.1483852371304734685
1.1482938829534330427
1.1482204820067691831
1.1481790386047465713
1.1472759221155637288
1.1472004546228495858
1.1471675219457178052
1.1471828074407033338
1.1472398821383889
1.1473151843315536613
1.1473822946363678721
1.1474295500128153247
1.1474725660968674301
1.1475458657783275118
1.1476718473879270466
1.1478411987976453457
1.1480122478263501407
1.1481316758905824038
1.1481637909122199837
1.1481119499468273037
1.1480157154184933432
1.1479316284502185663
1.1479024462916189719
1.1479355228996159788
1.1479987256814201402
1.1480399601358375339
1.1480154249528662369
1.1479187468524456595
1.1477922348491373938
1.1477037878729348108
1.1477089767687733701
1.1478198455686063895
1.1479949686418060573
1.1481615105062987769
1.1482573406791904969
1.1482649260718655881
1.1482164344219907282
1.1484061373424814256
1.1484260336203278019
1.1484486647753042732
1.1484700440508111008
1.1484884602298086609
1.1485038677440226884
1.1485174078544919674
1.1485299192865014994
1.1485411202093132044
1.1485478299258777835
1.1485468617939782465
1.14853228301351451
1.148502213109386938
1.1484560750398766782
1.1483975871684746206
1.1483342805892529093
1.1482753680167985255
1.1482303409075897971
1.1482097860357551866
1.1475244245105657992
1.1474871331931819629
1.1475100353482230453
1.1475672675729617911
1.1476178697636225667
1.1476367221235375116
1.1476336095319286112
1.1476504453675948625
1.1477310045839721475
1.1478901782448975855
1.1480983971684814993
1.1482910489188837833
1.1484068847926121038
1.1484211928867564811
1.1483537817911353418
1.1482548268187451335
1.1481818302517761143
1.1481700678216459899
1.1482145825519853855
1.1482740426813351498
1.1482909022723049031
1.1482233469714799856
1.1480717925913608291
1.1478851193400594344
1.1477391038857256422
1.1476955239525006292
1.147767046655556733
1.147910144816515654
1.1480518506096653031
1.1481343657480760356
1.1481473574888327871
1.1481251610004641339
1.1483427723889605421
1.148359928255445972
1.1483747094042198178
1.1483830087857129776
1.1483837673801515766
1.148378446034857614
1.1483705525654168689
1.148363587253210083
1.1483601434118488882
1.1483595222314193496
1.1483607969642009028
1.1483588814770226971
1.148351442459270233
1.1483355542714872577
1.148311255519749885
1.1482837644952768041
1.1482570878720370633
1.1482402842215742034
1.1482406146746289011
1.1479307894170354132
1.1479737873147324301
1.1480209920611452734
1.1480324753310302555
1.1479977926386808473
1.147947612587692845
1.1479384734373112575
1.1480152031240300481
1.1481804945457920741
1.1483885784926239904
1.1485735813622808266
1.1486842231321574559
1.1487049005172476068
1.1486545920226072237
1.1485744625278133668
1.1485054095136304486
1.1484717073564563172
1.1484722538826535043
1.1484796929371705598
1.1484523398672210615
1.1483587909501069557
1.148200402276169374
1.1480160218866972688
1.1478652261157944459
1.1477975036682734888
1.1478247578672897689
1.1479144543921409038
1.1480114850603513332
1.148074379516832666
1.1480967079404589271
1.1482327846696163132
1.1482385578125680059
1.1482381407372632687
1.1482318785747780421
1.148221658021403524
1.1482106077243785514
1.1482015703414092389
1.1481969378302026019
1.1481962551512692183
1.1481997999098203511
1.1482040113403335635
1.1482082992249760256
1.1482102560564144689
1.1482085664678560732
1.1482068984340454421
1.1482047693155348345
1.1482113690680488816
1.1482305851134835262
1.1485395289541293629
1.1485327634084647741
1.1484807855307483937
1.1483973117673114128
1.1483216912044558189
1.1483024757786115533
1.1483695010541905557
1.148515615575043336
1.148699679010204866
1.1488696858318583338
1.1489850802709626887
1.1490290505671540977
1.149004185960016633
1.1489287843820163992
1.1488297388970136748
1.1487345264553829871
1.1486560640158631763
1.1485909579077728804
1.1485217328877035392
1.1484313793870613019
1.1483190224337738172
1.1481994100367201028
1.1480978174017686388
1.1480368929256457022
1.1480216696175065128
1.1480369496239388738
1.1480598938836519274
1.1480767710443964269
1.1480364649697454293
1.1480388696633470058
1.1480420919087890308
1.1480467936885438984
1.1480532040285322815
1.1480613976174152135
1.1480704697513532953
1.1480799014308766814
1.1480875804022094844
1.1480938640881994672
1.1480966030222286012
1.1480978280085643028
1.1480980034710663862
1.1480981044431206595
1.148103491101561735
1.148111325377056291
1.1481310844571404051
1.1481633926251160194
1.1490147551392084768
1.1489032821062878931
1.1487946293559589961
1.1487276247392730344
1.1487252369537821473
1.148791435254310489
1.1489114724468250106
1.1490563665999296017
1.149193854060447828
1.1492940666531055172
1.1493344886800007654
1.14930516625066792
1.149211919699832718
1.1490738031291505283
1.1489187411936729877
1.148773661450205541
1.1486575370221587811
1.1485761078796898893
1.1485264705651760941
1.148496579645991611
1.1484718097527777392
1.1484405602708980254
1.1483927457997451516
1.1483245531296117914
1.1482424699808326807
1.1481623271810150744
1.1481014200498877997
1.1478113494853816601
1.1478313972826483802
1.1478625446853645276
1.1479021398186544101
1.1479456187824006452
1.1479864871183718122
1.1480194115235025087
1.1480393382575462269
1.1480463563511698055
1.1480404647475457303
1.1480274291711594081
1.1480117850260802559
1.1479981606290690088
1.1479950002746768245
1.147999686188343027
1.1480225717999756885
1.1480601125964178255
1.1493960739069610799
1.1493338478076038367
1.1492549950311226059
1.1491935613530397386
1.14916608681028376
1.1491761822576269658
1.1492222663053219822
1.1492983850011648794
1.1493931929307927842
1.1494839440660129526
1.1495426122862768548
1.1495442973952059162
1.1494788096100323482
1.1493544954448202677
1.1491965061527229519
1.1490347000558194246
1.1488949216056558722
1.148793160138210423
1.1487386235085887964
1.1487334072948918173
1.1487651220773587024
1.148806379151928958
1.1488190368077189074
1.1487693035742960745
1.1486478025087456523
1.1484752596176948103
1.148292521163351898
1.1476472498567851233
1.1477093029973386429
1.147782397404617738
1.147859090000200144
1.1479291893867853425
1.1479840738593067861
1.1480165071489250028
1.1480260586912856002
1.1480139512316023254
1.1479884378879219309
1.1479573347768543545
1.1479282425148211733
1.1479118468705493683
1.1479057705056052718
1.1479211608167545489
1.1479518058211501952
1.1494946511792312194
1.1495301994590922945
1.1495541417258974271
1.1495622778898071381
1.1495515824171846919
1.1495316148314194127
1.1495234244414758162
1.1495451415255131256
1.1495950561980947668
1.1496468415806904151
1.1496636197082057418
1.1496200425956788482
1.1495180992328568603
1.149383289400474073
1.1492487167549247928
1.1491364871496820843
1.1490553290801397424
1.1490039060859715825
1.1489815549319677412
1.1489900760594113915
1.1490244325059262298
1.1490632449594642139
1.1490690721865228774
1.1490058243571743546
1.1488600217307585183
1.1486492050825538591
1.1484163107625546818
1.1482113185440152581
1.1476086579620559114
1.1476948147452172844
1.1477824782203569498
1.1478622607894677365
1.1479264895786143175
1.1479680139199692768
1.1479855705840809055
1.1479794154595186484
1.1479567223888220706
1.1479247838747272947
1.1478912631168198821
1.1478673126863137011
1.1478508826794011632
1.1478535181154134737
1.1478676002620682439
1.1495955096324239619
1.1497125048672163228
1.1497765149980156973
1.149770736089323897
1.1497164509998358817
1.1496590569704328022
1.1496396244390594266
1.1496647352644540074
1.1497021058165499685
1.1497037235027824931
1.1496408410527814148
1.1495230019148929834
1.1493893481216315156
1.1492810948930751724
1.1492190090999738761
1.1491990660387743084
1.149202247947460398
1.1492120884618353127
1.1492212990109234028
1.1492289526993393345
1.1492296898454583687
1.1492033932724610157
1.1491252028253042816
1.1489787924321142043
1.1487693110390473361
1.1485291859529642711
1.1483063270492581687
1.1476237472229118275
1.1477070039807593105
1.14778397149305178
1.1478488271186990666
1.1478952826961141831
1.1479218714549772606
1.1479275629010683435
1.1479170179403550556
1.1478949155812860905
1.1478667872742458478
1.1478424260305295501
1.1478194029315658131
1.1478096768446084397
1.1478058402303279451
1.1498442056436473102
1.1499286167380797785
1.1499036913745868116
1.1498033466401222924
1.1496956915089613371
1.1496396689403789448
1.1496491326475390959
1.1496867182955907705
1.1496952741634052231
1.1496383601424533527
1.1495244868355836143
1.1493982576533967599
1.1493100430301079751
1.1492862081394263907
1.1493187310909234178
1.1493743519314005841
1.1494162899361837216
1.1494220432386998976
1.1493916394133005809
1.1493377156349233736
1.1492671921718069505
1.1491743211236591371
1.1490418038198291217
1.148860296121939184
1.1486441179054462935
1.1484313816742783843
1.1476218112138543148
1.1476888695180744726
1.1477505350612613455
1.1478013894807719275
1.1478392638077534738
1.1478611391148658694
1.1478684527576372698
1.1478625394811388105
1.147845848726115614
1.147825754751687688
1.1477991843838895036
1.1477781947634024817
1.147756103887736856
1.1500196618483797817
1.1499620066524411932
1.1498184186454116773
1.1496688580414273773
1.1495820394438445167
1.1495795571708202765
1.149625480715271264
1.1496564712302697053
1.1496260918747769342
1.1495325256119601764
1.1494171446803791437
1.1493375225495707781
1.1493312291524870883
1.1493957435298636227
1.1494901166081548105
1.1495589959584433526
1.1495634822199465308
1.1495015119224911704
1.1493984203758278451
1.1492865389519153485
1.1491807472312134397
1.1490686805204535226
1.1489293631061161527
1.1487575920716890376
1.1485761249853492227
1.1475846860343132949
1.1476425500837281746
1.1476980103163201274
1.1477477997505769469
1.1477868422944363935
1.1478132435602352857
1.1478251479138195101
1.1478220179988836147
1.1478088242577590972
1.1477818211120562886
1.1477523534574756159
1.1477140207595661892
1.1500017210895816522
1.1498168545418745445
1.1496284447336526657
1.1495070544865380047
1.1494815350358034145
1.1495293522955400967
1.1495883512791884584
1.1495976287731581866
1.1495377880123931469
1.1494400440205929659
1.1493623131095040968
1.1493530531113771431
1.1494224008902009793
1.1495321521560717404
1.149617332019567062
1.1496249889495631091
1.1495452517382391822
1.149411814837500323
1.1492753448543824302
1.1491639799981512304
1.1490735013392532338
1.1489782090817528548
1.1488578277233754132
1.1487197662518937591
1.1498309341254222549
1.1496056751152627928
1.1494423641016600079
1.149380690298514196
1.149412138810098849
1.1494860053924158549
1.1495384471285332584
1.1495284219354966471
1.149462381092319907
1.1493876117558217143
1.1493620649904419118
1.1494112057311627328
1.1495094470792115438
1.1495939955925948972
1.1496055652513941236
1.1495253002865586378
1.1493843917039094915
1.1492400576932915168
1.1491340895214630091
1.1490682689045195186
1.1490149327429168835
1.1489447126938165944
1.1488540508157121245
1.1494223989248708584
1.1493048630677440425
1.1492964802125613666
1.1493646988674663945
1.1494482266486343303
1.1494887645480980076
1.1494640238019269152
1.1494012923871339549
1.1493561526411648632
1.1493676134187902349
1.1494281100899226278
1.1494904245821735422
1.1495011304537090524
1.1494359975152086406
1.1493166424572209827
1.1491917612183337738
1.1491028447809130686
1.1490601518737717512
1.1490423549968329375
1.1490192093279949503
1.1489739525623503535
1.1493418960480530355
1.1494242852778850938
1.1494431634850978963
1.149401529557714241
1.1493411955861716489
1.149306472862541284
1.149312082483637365
1.1493353569461808306
1.1493391048733485604
1.1492991082462271635
1.1492214833721949852
1.1491369931581996156
1.1490790623116753366
1.1490614385322939217
1.1490728182642757638
1.1490869519580970692
1.1490799990826827681
1.1493079479761119099
1.1492284341199916486
1.1491746890019669536
1.1491528323836102121
1.1491469861171073052
1.1491360028439239205
1.1491107660057910955
1.1490791617985480766
1.1490611698628563353
1.1490716216767651314
1.1491074498944375826
1.1491495231444990299
1.1491718069642837818
1.1491364259684986315
1.1490295166841286711
1.1489671979043205585
1.1489540157167408285
1.148973416405658865
1.1490023814737864161
1.1490283501212457118
1.1490546594590509422
1.1490929913035705656
1.1491489603334432701
1.149210973830225635
1.1492528978500666792
1.1441862666379667424
1.1444778334102687634
1.1450222770403497563
1.145763436218453446
1.1466024284198852445
1.1474334685010940671
1.1481639904549547637
1.1487465940219256932
1.1491721444468157021
1.1494843161925245578
1.1497641595160263961
1.150088702731978163
1.150483672611119168
1.150916250687097353
1.1513114030549942424
1.1515945339941036085
1.1517386243117226918
1.151763456890916526
1.1517176501137074141
1.1516479319294807837
1.1444018283281502946
1.1443507132389703074
1.1445175588707237058
1.144907928366115657
1.1454789443814556993
1.1461602414526201876
1.1468807094454420703
1.147566916254571856
1.1481584080386721958
1.1486360514615407968
1.149016203863363117
1.1493686875742716857
1.1497739734956482494
1.1502650850082696277
1.1508015662707056226
1.1512870796808003515
1.1516327431542250359
1.1518040035854690828
1.1518327843878952699
1.1517836216728420951
1.151710881601036407
1.1516353482153123267
1.1451828252691262922
1.144857238731268545
1.1446288375004827209
1.1445671745763323912
1.1447076005455898429
1.1450341506916297263
1.1454976612134004643
1.1460471390646445045
1.1466409176622860411
1.1472326027961283756
1.1477675713662245371
1.1482155426245128638
1.1485900476666164316
1.1489519169215793859
1.1493923110891424155
1.1499509171522035444
1.1505795348492477981
1.1511618127851925841
1.1515835245738113013
1.1518021121711725652
1.151856002613873553
1.1518206040744891627
1.1517563051561807708
1.1516806382597011282
1.1515857184998841145
1.1514674214805031838
1.1455647088133091849
1.1452266751222859309
1.1449146227278541588
1.1447191984945626064
1.1447048985359711271
1.1448833712058752443
1.1452147621219523899
1.1456425324748669148
1.1461314293990763069
1.1466624446475908172
1.1472089294361669243
1.1477161814886371882
1.1481398069728816491
1.1484851669696010124
1.1488166757361988335
1.1492320351307510062
1.1497891462322347156
1.1504377295951335736
1.1510436965759311967
1.1514761248674110217
1.1516844797383847254
1.1517161237570918697
1.151661438768693646
1.1515844552108869259
1.1514996985958816378
1.151393734592873308
1.1512676709357376748
1.1511378873263320433
1.1458719280439155774
1.1456525800597423537
1.145465716126105038
1.145421086652974596
1.1456030737260303187
1.1460282081582775504
1.1466314612157493258
1.1472958797963148658
1.1479159101947868926
1.1484456132570988185
1.1488864299038983319
1.1492411851446142634
1.1494830779555011979
1.1495839233270586099
1.1495739627688370543
1.1495492667113946794
1.149636963685234825
1.1499224983496016961
1.1503644889963091646
1.150815264010830008
1.1511200446083063031
1.1512173155728004925
1.1511528805222974725
1.1510220952951681905
1.150889625349167833
1.1507614685423257495
1.1506201169747563018
1.1504704644616967624
1.1503354872472233428
1.1502185753613745067
1.1488661044017836055
1.1490407672595377431
1.1491177607387397241
1.1491622586734906442
1.1492618395831366573
1.149485514840116851
1.1498355189649216435
1.1502312989954135425
1.1505529615878458127
1.1507139321736230553
1.1507129283923427376
1.1506047906988046137
1.1504344941497757215
1.150203648029059833
1.149883288940852788
1.1495106596132815824
1.1491862372517136492
1.1490440041624583323
1.1491687669799559579
1.1495120674117005333
1.1498984868523212111
1.1501494952225210788
1.150189623351768109
1.1500692932172302818
1.1498940190533866179
1.1497310390955715054
1.1495800728857923367
1.1494170745970300196
1.1492482426358039405
1.1491019522525596219
1.1489777214877365807
1.148824928154762226
1.1503201915295335755
1.1502535547505363667
1.150073448379374641
1.14985021921645858
1.1496905426095984648
1.1496809448267175657
1.1498314639188262909
1.1500497021196423031
1.1501995930460771067
1.150187839083508079
1.1500202116394813157
1.1497670242435999999
1.1494870376664558798
1.1491770820536855169
1.1487988339075265731
1.148369280353102484
1.147999631953454891
1.1478259834374968662
1.147936911015666972
1.1482850128173003323
1.1486852743475928218
1.1489440765217320273
1.1489792226493220628
1.1488464359092498412
1.1486607754673656689
1.1484920372219833418
1.1483359010475626683
1.1481643005595314477
1.147986378818539599
1.147837214993982391
1.1477169340508330819
1.1475655889825646661
1.1473109109184664867
1.1399746940794450722
1.1402093081835662502
1.1403708903730473967
1.1405307023634065899
1.1407444319453827752
1.140925607396179986
1.1493406430955244169
1.149220769581797752
1.1489808539654478015
1.1486958434343808033
1.1484850479252781685
1.1484431013754627937
1.148578309218149629
1.1487855287657338099
1.1489139953405471672
1.1488715240065412448
1.1486714391078158837
1.1483968457293936005
1.1481123567514119888
1.1478073909696697719
1.1474361332559830373
1.1470025159616963339
1.1466246868716036822
1.1464527986874610832
1.1465782539135616069
1.1469504752753385546
1.1473763593681032269
1.1476499631103465049
1.1476875756320981115
1.1475512316245821687
1.1473644937872511385
1.1472006922007711438
1.1470510372410978039
1.1468833366802189122
1.1467073012645874197
1.1465638085817240199
1.1464550486140721031
1.1463137582316553775
1.1460596664924005417
1.1456894312093204302
1.1411317029097451936
1.1413344619682754821
1.1414799865561298109
1.1415501261417961842
1.1416248647411919581
1.1417632623244386991
1.1418730044721698835
1.1481978943579618235
1.1480802649028432061
1.147839962848749007
1.1475518293131177217
1.1473379578085722841
1.1472972169198847325
1.147438071178116914
1.1476536379786328457
1.1477860405146746992
1.1477450741393131484
1.1475448267053245388
1.147271318424238018
1.1469906053227592047
1.1466904872800400828
1.1463229446071614426
1.145891749249827285
1.1455121513257842114
1.1453511531980311577
1.1454934004192802721
1.1458842602414291978
1.1463274792988951134
1.146609990757965658
1.1466504729419038089
1.1465125277378713786
1.1463258926094619383
1.1461648904893699807
1.146017719532779422
1.1458503677793980824
1.1456734530909802317
1.1455314433648458028
1.1454290539581786224
1.1452924984829995214
1.1450372618003370473
1.1446605576994990372
1.1442702254261327699
1.149093266023667459
1.149094617126907858
1.1491057262093491431
1.1491194553943815393
1.1491268344629623765
1.1491182677002109713
1.1490916184923873899
1.1490418124753642992
1.1489805419252989704
1.1489061557206237119
1.148837794668376322
1.1471859417953091942
1.1470889636569467918
1.1469916650793117174
1.1469076533700566234
1.1468602476782283617
1.1468563140770569042
1.1468710487479694127
1.1468595125454030814
1.1467914964234180442
1.1466757447071038722
1.1465631179503559256
1.146519502825102288
1.146585354266804524
1.1467500844397577886
1.1469486977374279135
1.1470940285369854994
1.1471305083102445455
1.1470678778791363328
1.146971470950276073
1.1469221939740594784
1.1469741722835351538
1.1471315988431391997
1.1473515659133697309
1.1475647522559997427
1.1477088172828449064
1.1477563203291802907
1.1477243775325416397
1.1476642228754529995
1.1476359959392568033
1.1476797257145845421
1.1477936241485977575
1.1479364139956904634
1.1480562888164036472
1.1481258119771233783
1.1481589712966067118
1.1481978732755446782
1.1491121195861464521
1.1492060317978607387
1.1492701205156967692
1.1493008469997554322
1.1493000304541614032
1.1492728346156775299
1.1492284615450323315
1.1491777040064543591
1.1491307702982189731
1.1490945640676120121
1.1490716851809883448
1.1490605302195058268
1.1490564024788989528
1.1490522990718563534
1.1490406964057124917
1.1490130286402608917
1.148966263449331171
1.1488954306635541514
1.1488116598068323082
1.1487158306675107067
1.1486275055924570765
1.1472216267399337752
1.1471703685098786352
1.1471060482919512857
1.1470477387967761285
1.1470232209685813363
1.147035401887916084
1.1470500092341060494
1.1470222989421958726
1.1469284077279866541
1.1467886516709930866
1.1466629313957130698
1.1466123430741310685
1.1466661802957365257
1.1468050675948964212
1.1469619320770736426
1.1470608231523540255
1.147066988979794866
1.1470065810892586811
1.1469479593960523189
1.1469647100456348277
1.1471000929775367894
1.1473439393608459991
1.1476349697328327437
1.14788626393062132
1.1480204632403938625
1.1480033492975956211
1.1478603855010542922
1.1476653781827335088
1.1475056677344548373
1.1474450378871208223
1.1474979639822091571
1.1476269419916873549
1.1477707325676680394
1.1478848876617944175
1.1479647304154718679
1.1480394618723179789
1.1491209903298269523
1.1492103272175586692
1.1492658288289541169
1.149286129632099529
1.1492762915132366253
1.149243930647543932
1.1491977922224758668
1.1491459482400512293
1.1490959904798727642
1.1490538879240599357
1.1490227714614831278
1.1490018897292944011
1.1489874688251906498
1.1489725601816824785
1.1489500113186508212
1.1489121827323152125
1.1488559545387493355
1.1487767106696311625
1.1486832357153060613
1.1485771595896678843
1.1484768602255881476
1.1472240630030889896
1.1472203869232393547
1.1472149403068265805
1.1472294462120780079
1.1472555695122963471
1.1472596423650278652
1.1472048959556722103
1.1470842499596252129
1.1469339075169826536
1.1468105100548096065
1.1467616018846062964
1.1468031087414449765
1.1469044230103377924
1.1470034493394065667
1.1470527972022481755
1.147044927159155403
1.1470137798470934065
1.1470176651215000518
1.1471131154496596594
1.1473255252793796988
1.1476302423196493852
1.1479552113186337614
1.1482084224830300112
1.1483115026243921886
1.1482321192336832905
1.1480000617858510115
1.1476984773537250994
1.1474288920601032338
1.1472693310767276831
1.1472482388359577232
1.147340338991438502
1.147487693205252457
1.1476367071023347854
1.1477646230925167004
1.149178476182861619
1.1492177720323288881
1.1492231292301382517
1.1492007011416074391
1.1491593561991060302
1.1491088668839022358
1.1490568872862958472
1.1490087051654871431
1.1489674157368621188
1.1489345837032844955
1.1489095604914356663
1.1488904873983738497
1.1488719844208894472
1.1488480297084593396
1.1488113030538968928
1.1487577991478998829
1.1486829980588038058
1.1485928937566090013
1.1484891415938924819
1.1483867875796771596
1.147215764271811711
1.1473039883455726784
1.1473774841818766834
1.1474357204174767677
1.1474676171232667254
1.1474490609208805036
1.1473667552136357362
1.1472391740526557413
1.1471049503152876969
1.1470066693833529392
1.1469730745666164573
1.1469972184653067782
1.1470425510658186496
1.1470766076239085063
1.1470896996915109778
1.1470957793771592304
1.1471258565942510366
1.1472155501925513921
1.1473914295746847625
1.147654016660203613
1.1479691313954258902
1.1482694335376926187
1.1484767415184637951
1.1485295750634503253
1.1484051627427533937
1.1481308883321241776
1.1477790667911920153
1.1474439676043897141
1.1472061509574214
1.1471060618498420958
1.147137609839161021
1.1472594285739186049
1.147420650400348574
1.1475849645978026814
1.1491075756619104631
1.1491240813421541578
1.1491102080211066383
1.1490739986888103275
1.1490244898919426131
1.1489707191709406242
1.1489194564872509119
1.1488750462906349714
1.1488392814219563487
1.1488124577516696245
1.1487927043783390246
1.1487784239746030579
1.1487649388407359385
1.1487476774268412516
1.1487202804474541118
1.1486782092332155081
1.148617106067408189
1.1485398077363719871
1.1484477259373329083
1.1483512719338626606
1.1473977631450347214
1.1475589892710291728
1.1476567549276652791
1.1476796966192623906
1.1476301368672792158
1.1475306887410430257
1.147418490679507741
1.1473301761243430708
1.1472835593727639392
1.1472662673212952189
1.1472509956074599113
1.1472232542450016002
1.1471941507275347227
1.1471920776670809783
1.1472453717831572195
1.147368196051022915
1.1475560077657338542
1.1477929698743138953
1.1480560902080378938
1.1483126180628446811
1.1485221562184808608
1.1486422740205972648
1.1486392667483178442
1.1485012411048960423
1.1482453739819780125
1.1479162632636146224
1.1475784212098500969
1.1472988293533319393
1.1471253675479289313
1.147076023419577373
1.1471393078795459886
1.1472810146196246173
1.1489770048598946239
1.1489445765906058927
1.1488959002776837348
1.148840761178212766
1.1487874827526738386
1.1487414747253901215
1.1487058620052799096
1.1486815981025908506
1.1486685378249312794
1.1486641102063770425
1.1486662857982006258
1.1486696541751957312
1.1486696811839320898