/*--------------------------------*- C++ -*----------------------------------*\
  =========                 |
  \\      /  F ield         | OpenFOAM: The Open Source CFD Toolbox
   \\    /   O peration     | Website:  https://openfoam.org
    \\  /    A nd           | Version:  12
     \\/     M anipulation  |
\*---------------------------------------------------------------------------*/
FoamFile
{
    format      ascii;
    class       volScalarField;
    location    "0.00542";
    object      rho_0;
}
// * * * * * * * * * * * * * * * * * * * * * * * * * * * * * * * * * * * * * //

dimensions      [1 -3 0 0 0 0 0];

internalField   nonuniform List<scalar> 
106891
(
1.1490538703450323688
1.1491012238158180292
1.149120459635398328
1.1491071040716838159
1.1490598004324803494
1.1489802228358820813
1.1488780132772367093
1.148759134261164272
1.1486467160614954874
1.1485472488824557402
1.1484823702782427368
1.1466878116355034845
1.1465299816294138857
1.1464317931140934892
1.1463763955078387635
1.146368757283013684
1.1464375118181220348
1.1466077145925359648
1.1468671449485918767
1.1471586484494316061
1.147404750329668266
1.1475518062209482117
1.1475952400089939331
1.1475734107385673344
1.1475330361928641754
1.1474987323402205952
1.1474660787796560069
1.1474171708446179174
1.1473453368927413187
1.1472648488152439317
1.1472034522175835747
1.1471871950143237573
1.1472261865839905592
1.1473112656773118978
1.1474248423404982411
1.1475540513402033849
1.147694032995316471
1.1478414953453304204
1.1479866594983618722
1.1481160926547040457
1.1482262010879979997
1.1483284173682080098
1.1484400278705726439
1.1485660518888733961
1.1486867712299748678
1.1487634681276728266
1.1487622664390160221
1.1486774893028155464
1.1485399227740866746
1.1485636862566377392
1.1485497069767505174
1.1485531499329848515
1.1485789448125101053
1.1486277608608046474
1.1486969264705222393
1.1487806541701230945
1.1488709739921278974
1.148957938289676628
1.1490300640161585921
1.1490763006917859013
1.1490883815936907553
1.1490615457269370836
1.1489962029163436341
1.1488965526310472853
1.1487741928904788846
1.1486380208088431409
1.1485111058792079053
1.148401733028132865
1.1483312821700510931
1.1465726593584759652
1.1465041887868585579
1.1464835364649443861
1.1464980565174522908
1.1465647542301089512
1.1467081163240773201
1.1469239292641570938
1.1471649787862738812
1.1473650881581338723
1.1474811047042310364
1.1475158218192498261
1.1475085088802685629
1.1475018841977797646
1.1475132258450806422
1.1475302214881764051
1.1475265133052670041
1.147486702599588515
1.1474206364109633682
1.1473553693430156297
1.1473191058354657024
1.1473269712578426649
1.147375699733952592
1.147450084983898666
1.1475380485031769773
1.1476374908212838566
1.1477515381260254834
1.1478809621264964846
1.1480204883002012028
1.1481637345495110392
1.148306985769813604
1.148445553832259991
1.1485685264302503139
1.1486561763084406351
1.1486856540852035113
1.148644146226062146
1.1485420973316673443
1.1484987861646811513
1.148490004065925385
1.1484971616787320592
1.1485251214758724903
1.1485754476074165886
1.1486461991486258682
1.1487310199109603825
1.1488208426132078266
1.1489052225807825369
1.1489731677528154385
1.1490139508474783714
1.1490196284314515562
1.1489850712262972277
1.1489113169840543538
1.1488037433584288305
1.1486748003635034454
1.1485356569267362037
1.1484080335153958874
1.1483007840487604589
1.1482330084624539079
1.1467073959100824165
1.1466562054065545517
1.1466453775873013399
1.1466592560651331922
1.1467106446862058711
1.146819559930785104
1.1469848268090006016
1.147169458603402914
1.1473222865067773668
1.1474138507144333587
1.1474543176040550296
1.1474805961533693921
1.1475270272965190088
1.1475988753315671254
1.1476690358992587271
1.1477014910082352639
1.1476775848055076334
1.1476099901104259704
1.147533480833259123
1.1474839127750160461
1.1474792140754557224
1.147514144646814005
1.1475673415962996948
1.1476186080539607648
1.147664248437360035
1.147716379317614166
1.1477944625580680515
1.1479119043337890904
1.1480661290421385612
1.1482387016077579833
1.1483987162642288471
1.1485134971488493161
1.1485624314051416928
1.148543556266160115
1.1484733650855418752
1.148380236914945618
1.1484533883164937951
1.1484673893728347682
1.1484972862053819398
1.1485426366076167959
1.148601888138086613
1.1486710390343597421
1.1487438242920822162
1.1488120796563878745
1.1488666005174934526
1.1488979512014705353
1.1488993228006298963
1.1488654221735474792
1.1487968090899292051
1.1486977282299990488
1.1485788663515397179
1.1484518925793996136
1.1483363121206617841
1.1482420378088769031
1.1481855394427009642
1.1469506530726674143
1.1469093957509726156
1.1468954036168290678
1.1469198128562141381
1.1469929477686817698
1.1471053387296825665
1.1472266313705057339
1.1473254186424830525
1.1473923143206528064
1.1474479953641614216
1.1475248317902642103
1.1476371663528994738
1.1477671858298639229
1.147873023065252962
1.1479157652349156749
1.1478843962511089405
1.1478038815444739917
1.1477200813345722619
1.1476746054679578535
1.1476829617156734109
1.1477284566307144331
1.1477753713476326336
1.147790760695624579
1.1477676683158875015
1.1477326113653167905
1.147730977583006684
1.1478001879443857636
1.1479441308946440881
1.1481283149916878816
1.1482969734761692138
1.1484000835860519452
1.1484186965098934774
1.1483712620141532934
1.148297577182276985
1.148432489153287106
1.1484386575710392453
1.1484563211268399296
1.1484838323737787125
1.1485187035824477864
1.1485589353038303528
1.1486022363089225529
1.1486459997382463261
1.148686546350771609
1.1487189511043296442
1.148736590480193831
1.1487343688353799376
1.148706855783205194
1.1486537736513284802
1.1485772580350779304
1.1484845371503558109
1.148385361041355468
1.1482945440564749084
1.1482222294628650072
1.1481823109645283854
1.1472736005598835884
1.1471989971580931478
1.1471673079662969563
1.1471838528646685074
1.1472415846645889204
1.1473164757954319448
1.1473824120136535409
1.1474286184107715947
1.1474717618272096686
1.1475465313049604266
1.1476744045914371029
1.1478447594252487729
1.1480150162322440011
1.1481319227288389051
1.1481609554267961926
1.1481069819279530186
1.1480106640912228766
1.1479285813439283892
1.1479024633521945908
1.1479380780099730508
1.1480020200778409123
1.148041902814599835
1.1480148081378194203
1.1479161819600562922
1.1477898827530579329
1.1477040649918794912
1.1477131705300180897
1.1478272546748107263
1.148003126661989004
1.1481675712874372941
1.1482596920112004835
1.1482639992312617672
1.1482142161408650516
1.1484170665803836719
1.1484371628726040004
1.1484596181236381707
1.1484805186271289656
1.1484982775642640362
1.1485129632961121882
1.148525791043056854
1.1485376193104470666
1.148548134379110186
1.1485541028458898793
1.1485522948327184789
1.1485367887937363296
1.1485057922007662068
1.1484588522466021576
1.1483998222688445168
1.1483363361233442923
1.1482776697985952463
1.1482333326316609412
1.1482138662111494032
1.147520203969533803
1.1474848420232059976
1.1475092870009075963
1.1475666376934323676
1.1476159159338770177
1.1476331203192362551
1.1476295116046502098
1.1476477806566529605
1.1477311608044411528
1.1478930477812736566
1.1481022048054840834
1.1482933100869827658
1.1484059898751211026
1.1484171957554407673
1.1483482209975777177
1.1482499338349807516
1.1481794933276725512
1.1481707760706580945
1.1482172037761022576
1.1482763407420846224
1.1482906503876013637
1.1482195596891591194
1.1480653906149811405
1.1478786397115954276
1.1477353860800294516
1.1476961063710073851
1.1477712630996026455
1.1479155578367372659
1.1480557668855218001
1.1481354712154190345
1.1481462740916630327
1.1481236528631484362
1.1483539339468231688
1.1483708303868926937
1.1483849550952565099
1.1483923481397284583
1.1483921316536449542
1.1483859337363606645
1.148377359397754427
1.1483699169552696873
1.1483661439507772961
1.1483652584407537667
1.1483662497944457925
1.1483639696934471175
1.148356080549826741
1.1483397014105785061
1.1483149803263263955
1.1482872455600470207
1.1482605916491079867
1.1482441470377322545
1.1482451991080944165
1.1479279908915949182
1.1479716804287196652
1.1480178741536395393
1.1480272123300354625
1.1479907896434176084
1.1479407965056069862
1.1479341091477053283
1.1480144895171164876
1.1481827193984419644
1.1483916218771628159
1.1485752165092431021
1.1486832582286539139
1.1487014865475031478
1.1486499535644847381
1.1485701595564035138
1.1485025463161584458
1.1484705517818520892
1.148472067775477834
1.1484789089597324807
1.1484493167512974665
1.1483528137927163648
1.148192260910434026
1.1480077824830661193
1.1478592103971476668
1.1477950560733525265
1.1478255149739338137
1.1479166268529197303
1.1480130995263424509
1.1480744762433503503
1.1480956501987269469
1.1482428822764907395
1.1482478955058281755
1.1482465675491118073
1.148239383547150938
1.1482283487037729941
1.1482166680374026324
1.1482072087677925865
1.1482023311957616496
1.1482015176097748466
1.1482049727100598346
1.1482090693773832069
1.1482131802086157357
1.1482148735464798861
1.1482128803184963317
1.1482109604471024689
1.148208759227139053
1.1482155872676520492
1.1482353833031710977
1.1485348488547182377
1.1485260704358744022
1.1484722021845270579
1.1483879448451017602
1.1483134718117324891
1.1482972009947287617
1.1483678390282225923
1.1485167849597894829
1.1487019810612373316
1.1488713913005870193
1.1489851147268808074
1.1490270507983215698
1.149000357556784202
1.1489237560797063153
1.1488244002998044824
1.148729550705396063
1.1486515395563676734
1.1485864108087344704
1.1485163901496704408
1.1484249043754737318
1.1483117511147704626
1.1481921968605226514
1.1480917259054297386
1.1480325850816017752
1.1480190022994711807
1.1480351697058903682
1.1480582606841518434
1.1480749780391519277
1.1480454064797147584
1.1480473383977107815
1.1480500716770123404
1.148054284981157247
1.1480602043996883665
1.1480678989618384733
1.1480764724414347366
1.1480854185047153493
1.1480926437035472443
1.1480985271117731816
1.1481009391441496792
1.148101928610969269
1.1481019487088430786
1.1481019866195196766
1.1481073974935425142
1.1481153971618380805
1.1481355663090975217
1.148168565508718153
1.1490049108194604344
1.1488925444908917317
1.1487848400870728227
1.1487201163012275007
1.1487206688225566342
1.1487897100858368571
1.1489118622919654022
1.1490577901479064327
1.1491951706117460308
1.1492941839082693178
1.1493325520407655649
1.1493008321057545107
1.1492054009395642478
1.1490658369778843362
1.1489103180937951798
1.1487657219957232435
1.1486506408775234434
1.1485703878320838722
1.1485216700280005409
1.1484921405391657068
1.1484672348650815099
1.148435455731551702
1.148386872560192451
1.1483180445824332505
1.1482358637278997637
1.1481563678331403455
1.1480966005096016058
1.1478193644463314804
1.1478395297900536587
1.1478707456804793097
1.1479102274346075774
1.147953316068259122
1.1479934932386441915
1.148025487607575279
1.1480443774218505038
1.1480504182125867985
1.1480437567163621626
1.1480302637341242011
1.1480145012637454904
1.1480010900004600227
1.1479984109846606
1.1480037914508480767
1.1480275352954936174
1.1480660313695776331
1.1493890106483144464
1.1493251809917177653
1.1492464835703815051
1.1491863079947950421
1.1491605369643804746
1.1491723940712743612
1.1492201503011845176
1.1492976934712415549
1.1493933357569940945
1.1494839269189160991
1.1495413156100815488
1.1495408421851631697
1.1494729234091207726
1.1493466425838019251
1.1491876957047750807
1.1490260185340115395
1.1488872223822927943
1.148786955630297868
1.1487341999360851652
1.1487305941137453402
1.1487631281179166987
1.1488038777251661227
1.1488145392201905004
1.1487619535328308373
1.1486379435460249976
1.148464293798000746
1.1482822307861255684
1.1476554284700963837
1.1477179211028865069
1.1477911658808350737
1.1478675547044181471
1.1479368338923663373
1.1479904677482390962
1.1480214372914210319
1.1480295801851261306
1.1480163679541330879
1.1479902350671991051
1.1479590587739849639
1.1479304121055626808
1.1479148516799533297
1.1479098689552234003
1.1479264809093758792
1.1479583169166365231
1.1494916738688261137
1.1495268239972475932
1.1495503930473682797
1.149558014213508006
1.149546931634870317
1.1495272031631849075
1.1495200780797838469
1.1495432752328211823
1.1495941606777879684
1.1496456633970142391
1.1496608418288778442
1.1496151203359787907
1.1495114703108277876
1.1493760404904835859
1.1492418307405816158
1.1491304838155005363
1.1490502929082335726
1.1489997646623402172
1.1489783750903521664
1.148987851399992266
1.1490226697152217117
1.1490607357461650739
1.1490642815854645864
1.1489977692883681648
1.1488488969420946884
1.1486363993942947381
1.1484038589917606732
1.1482010367489687841
1.1476169062651906394
1.1477032678471184024
1.1477907161800366964
1.1478698139830987301
1.1479329470501138388
1.1479731190699351551
1.1479892992791944639
1.1479819985904284874
1.1479586056569404118
1.1479265124264268483
1.1478933882267452482
1.1478702598656975731
1.1478549172907304143
1.1478587251198670849
1.1478738960572552052
1.149596779422499937
1.1497126266037063225
1.1497742400612585012
1.1497661260773179848
1.1497108942954350486
1.1496543981866651496
1.1496369116561966361
1.1496635012561144951
1.1497007144778279564
1.1497005934609925148
1.1496355467961492103
1.149516495175458175
1.14938317394029621
1.1492763665671026363
1.1492159120605527356
1.149197004350100082
1.1492004270751818851
1.1492100445009163501
1.1492189047253758005
1.149226166129683202
1.1492260137450960311
1.1491979043023008433
1.1491171087079534718
1.1489679352321180428
1.1487565863235345009
1.1485163790356898161
1.1482954356424552866
1.1476313755433207309
1.1477145871354357265
1.1477911536899216838
1.147855270700841368
1.147900751638332828
1.147926290274001726
1.1479310370377866501
1.1479198276995228323
1.1478974466003382116
1.1478694725839611035
1.1478456249603639083
1.1478233552812571183
1.1478144813487110021
1.147811459990688121
1.1498463332745865184
1.1499268231468735557
1.1498981974899353808
1.1497962915993147348
1.1496897713610103597
1.1496364347983079046
1.1496481343232634043
1.149686008314857677
1.1496929314705843783
1.1496337914168019978
1.1495187535527087164
1.149393220624572054
1.1493071296246222257
1.1492856151022099453
1.1493194548690004453
1.1493748504204670535
1.1494153268496032361
1.1494191852993278502
1.1493872579106807486
1.1493322940390162668
1.1492608310325282961
1.1491665926797802744
1.149032183570169563
1.1488489768389689161
1.1486322813601983484
1.1484209295540470652
1.1476284884914182971
1.1476956214730651418
1.1477571063334857104
1.1478075386294346316
1.1478448170480852752
1.1478660249962833184
1.1478727251161497946
1.1478663562839146461
1.1478494501916631787
1.1478293727757975518
1.1478030173405895376
1.1477823743382866706
1.1477606760037277756
1.1500170641904754465
1.1499551764069222415
1.1498099667115262434
1.1496618975888968084
1.1495784734239939961
1.1495790856508851796
1.1496260013889219032
1.1496556839438720754
1.1496229994568438748
1.1495278907405046542
1.1494129607014840211
1.1493356191106305353
1.1493321735272334916
1.1493984550860090188
1.1494924807454047766
1.1495589920976179155
1.1495603169754915474
1.1494957806809582568
1.1493914308088486464
1.1492793939058418839
1.1491735605822843702
1.1490607640137668888
1.1489202216750478147
1.1487476531977620642
1.148566894647562453
1.1475909946621623003
1.1476492979610006806
1.1477049065433864161
1.1477545558154098604
1.1477931889241337338
1.1478189994128309426
1.1478302464895802082
1.1478265110850880415
1.147812813618152461
1.1477854433619507635
1.1477557333690582286
1.1477172907030510629
1.1499932997529689338
1.1498070446194266214
1.1496204101075535586
1.1495028272971350436
1.1494811935674777992
1.1495310868720638453
1.1495894814917113624
1.1495964520124721808
1.1495345147195139557
1.1494365193568303329
1.1493606287529651855
1.1493543200710492069
1.149425856056159212
1.1495355087891714341
1.1496180447564641192
1.1496217849072043471
1.1495387624297428442
1.1494039519058025789
1.1492678881490219212
1.1491574500090986355
1.1490673128534829583
1.1489714092720439975
1.148850199797067928
1.1487122526518749321
1.149819722103926134
1.1495961166384498497
1.1494367383357597667
1.1493795394997934345
1.1494141304865173048
1.1494886177526602022
1.1495393849874719905
1.1495269539429331385
1.1494595732332240079
1.1493856587819688553
1.1493626100135201362
1.1494141068526055882
1.1495127158691569313
1.1495949503969280503
1.1496026297078902889
1.1495187835146454258
1.1493763707481905456
1.1492327386104215226
1.1491284453971224444
1.1490637553925429071
1.1490103386032415322
1.1489393992728256233
1.1488484643309204714
1.1494146357077561493
1.1493018462186455064
1.1492976322844499215
1.1493679471140800796
1.1494509679843447625
1.14948921305333851
1.1494622528689337759
1.1493990138463641149
1.1493553186507354802
1.1493688144134517337
1.1494300424831345175
1.1494909572963458722
1.1494985650305926672
1.1494303926456259646
1.1493096274467351492
1.1491853682323454056
1.1490982301511094565
1.1490570928850036836
1.1490397666855816095
1.149016110941564861
1.1489701839260297866
1.1493457365348815902
1.1494263991696869187
1.1494425722098742249
1.1493991794711537757
1.149338872335285977
1.1493053518030664772
1.1493119311720347842
1.1493348380419712296
1.1493369479865291893
1.1492950303003697243
1.1492163643196626754
1.1491322940562971322
1.1490758363431112787
1.1490597443516685772
1.1490718616008228636
1.1490856928630739375
1.149077805926089324
1.1493042415811765
1.149224901299068069
1.1491721537215180415
1.149151067673517268
1.1491452559970982694
1.1491337609772671602
1.1491080614885185174
1.1490766488111245902
1.1490596395255234796
1.1490713066115434415
1.1491078746614216133
1.1491497266347763251
1.1491708604239714298
1.1491307871955624975
1.1490248824476037015
1.148964380325068424
1.1489528326988329709
1.1489731049730558254
1.1490022797521959319
1.1490283092946236287
1.1490550035868067891
1.1490940462077983142
1.1491505573305902388
1.1492122990903586022
1.149252862746310333
1.1441893412699222221
1.1444836890187977119
1.1450300578411887198
1.1457711213848154053
1.1466079896986267617
1.1474353228020586215
1.1481616095139437483
1.1487408902896147911
1.1491649709032176752
1.1494785547404398063
1.149762892874474085
1.1500935282521007608
1.1504939548435173524
1.1509296716287746865
1.151324732708369547
1.1516054847994203758
1.1517466262799651577
1.1517692170424618237
1.1517224240388053147
1.1516527430148748579
1.1444015941447527318
1.1443533055641268437
1.1445224588183182668
1.1449137454952535986
1.1454839835619297084
1.1461631442801536451
1.1468809326905806678
1.1475639825908663383
1.1481530092535392473
1.1486294367939733352
1.149010913500846609
1.1493679299290342488
1.149779808410994919
1.1502772090016739615
1.1508170780598176997
1.1513021580396636256
1.151644593834968866
1.1518119556799395475
1.1518380528635163706
1.1517878944257764484
1.1517151623816950234
1.1516397651719223472
1.145175496902073764
1.1448530530498566282
1.1446281577685650799
1.1445696913568603748
1.1447120025653241271
1.1450384583080197576
1.1455003666933194495
1.1460475980509015059
1.1466393916006811793
1.1472290733091958792
1.1477620559572736525
1.1482092317618017852
1.1485849144750872597
1.148951314031671167
1.1493989901212340321
1.1499646265199665596
1.1505970949907968759
1.1511785746657832163
1.1515961717998524083
1.1518100933654624729
1.151860886558294883
1.1518244534437331872
1.151760186095843741
1.1516845190698545842
1.1515892463176904403
1.1514706973275485868
1.1455543444720845958
1.1452180900019142129
1.1449095042412753553
1.1447183194512651205
1.1447076559470958923
1.1448876536750984823
1.1452180085846199731
1.145643299961997208
1.1461298979080545291
1.1466595157372720948
1.1472048561274790224
1.1477107787185987231
1.1481334649636945056
1.1484800149392759838
1.1488159947514076098
1.1492390755302295258
1.1498040995740332892
1.1504568800724184197
1.151061775035066459
1.1514893032105031345
1.1516921724800899263
1.1517204153971916103
1.1516647726318616218
1.151587942446289814
1.1515031060749008063
1.1513967783445306914
1.1512706207645304612
1.1511412187688978559
1.145861871521195452
1.1456418600750732928
1.145456727243585382
1.1454162201757713824
1.1456034269365422684
1.1460327039426805307
1.1466370488069799194
1.147299247573899672
1.1479155317138083348
1.1484424028561532882
1.148881736477782578
1.1492359090366119911
1.1494765210425859081
1.1495763214750003289
1.1495673338020635512
1.1495472750595521205
1.14964321249178969
1.1499375183041686821
1.1503843600735095265
1.1508339136629690547
1.1511331442216570231
1.1512244079787199436
1.1511563302064784509
1.1510247569474019169
1.150892616732388074
1.1507643613523588222
1.1506225976070414418
1.1504731340778180382
1.1503388306661117557
1.1502218409499047613
1.1488603712084959341
1.1490319748229547159
1.1491073129413649223
1.1491529029507943083
1.1492564848756561258
1.1494856394478798478
1.1498397417294115019
1.150235903385951719
1.1505542126658137025
1.1507105107022541635
1.1507063252460676406
1.1505972574279430543
1.1504271051475511989
1.1501955591676005231
1.1498742292781294339
1.14950269851382747
1.1491832777392012588
1.1490498133337856412
1.1491842346162526312
1.149532877187149138
1.1499179079473613729
1.1501627236309897029
1.1501961949446881661
1.1500720840423164226
1.1498962020156910935
1.1497336649756040305
1.1495825712507063976
1.1494190936500521261
1.1492506534562063614
1.149105354482713226
1.1489811107319300998
1.1488257783015538571
1.1503143812196310325
1.1502441172392525726
1.1500615593699201611
1.1498390739219221945
1.1496836577976601301
1.149680177869679687
1.1498352578339161578
1.1500537320758501547
1.1501997350005512821
1.1501828421630106991
1.1500119862548681127
1.1497584130605364994
1.1494790938845136363
1.1491689344588551513
1.1487894365582311806
1.1483609717609637446
1.1479964864067253583
1.1478320705100948373
1.1479530856336319644
1.1483068772489213316
1.1487055326597477301
1.1489575622169660996
1.1489854517240871701
1.1488487940492688733
1.148662622517500731
1.1484944510182324429
1.1483381196895703358
1.1481659967362645158
1.1479885810408165803
1.1478407136847013081
1.1477204687117261717
1.1475664343829867775
1.1473072628114686644
1.1399755300613230169
1.1402075126461466148
1.1403678197921152115
1.1405285844035271126
1.1407426000632157059
1.1409190724615272394
1.1493350717658541438
1.1492111741464325902
1.1489683049840990758
1.1486838193905053451
1.1484775303898735466
1.1484421584389981064
1.1485822721715481798
1.1487895644535184303
1.1489137028619331726
1.1488657340071053437
1.1486623573288310407
1.148387704797882769
1.1481043089024096648
1.1477992938084811136
1.1474267284736456851
1.1469938554874699044
1.1466213908590281445
1.1464591774028878302
1.1465950106543008058
1.1469731497016595334
1.1473972377504573217
1.1476635848808416362
1.1476935850435474595
1.1475531956585400817
1.147366098600928197
1.1472029731227497695
1.1470530779372938301
1.1468848118444494588
1.1467093379087545113
1.1465673811965537698
1.1464587762721774045
1.146314547328733946
1.146055604362694158
1.1456824760575015087
1.141132628067946575
1.1413349378548705015
1.1414778205037787728
1.1415468220089810547
1.1416228402550432364
1.1417614469180137338
1.1418662970421333824
1.1481922993001763
1.1480704125705389895
1.1478269253614516998
1.1475391882549204059
1.1473299675606021264
1.1472960521744008933
1.1474419958385837504
1.1476575208984132193
1.1477853195505092199
1.1477386650175798177
1.1475351349666418344
1.147261720695055276
1.146982344248826946
1.1466821843096794975
1.146313475326597775
1.1458825922527722252
1.1455086524799646952
1.1453576006731469583
1.1455103792973888588
1.1459072306914028783
1.1463484771087164571
1.1466235078727315955
1.1466561416077432067
1.1465141083457672799
1.1463271941030421797
1.1461669353106573865
1.1460195100999210904
1.145851556149324546
1.1456752513194263798
1.1455349348788328445
1.1454327781063233793
1.1452930883875918067
1.1450328460156591337
1.1446530778378025683
1.1442648639930215193
1.1490975734831465616
1.1490997134265708013
1.1491112122326856415
1.1491248434928800215
1.1491316685551486998
1.1491221915778058182
1.1490944338010939951
1.1490435824862594849
1.1489816067422968793
1.1489070515453052579
1.1488391618372786329
1.1471912219777471442
1.147093854910320232
1.1469962338778154631
1.1469127490511525913
1.1468665298923357287
1.1468634078476580562
1.1468774699518942128
1.1468635848225590124
1.1467927148565202344
1.1466753124548658693
1.1465635033135095355
1.1465229287259439683
1.1465924715668480705
1.1467593352195886158
1.1469569079992678606
1.1470982289585947012
1.1471298303099597415
1.1470640361334536461
1.1469677057039320278
1.1469215472390477117
1.146978107128669766
1.1471395964546318158
1.1473615403060026807
1.1475740767352005101
1.1477156086803992352
1.1477602204398189567
1.1477266092571545286
1.1476669095764056028
1.1476410928868656658
1.1476879303694222934
1.1478038963467627198
1.1479466134905962349
1.1480645512885916393
1.1481316943131525399
1.1481635700663852528
1.1482028363676408667
1.1491217246699583221
1.1492144997466131606
1.1492770963970528886
1.1493063006552559635
1.1493042463428146949
1.1492762716029214509
1.1492315892286821821
1.1491809160215917807
1.1491343889279344026
1.1490988159805606283
1.1490766553188402899
1.1490660966206174276
1.149062215844600221
1.1490578616049953453
1.149045507605293448
1.1490167264074195863
1.1489686865754473732
1.1488966865976824039
1.1488121396115271722
1.1487161620553707486
1.148628466670796433
1.147228359984926449
1.1471759493187980716
1.1471106847538936613
1.1470524891518707467
1.147028808788946419
1.1470411724266957876
1.1470542257118767626
1.1470234548880924308
1.1469263840996863912
1.1467852055740568318
1.1466606914940504769
1.1466132574071705719
1.1466705475155749561
1.146811141065197992
1.1469667301918229363
1.1470620563663922464
1.1470646295250901403
1.1470027706899772468
1.1469458369685363586
1.1469669004462419437
1.1471075418857914485
1.1473553962114484417
1.1476475443022458034
1.1478965885748018128
1.1480261031355420975
1.1480039120236107397
1.1478577271660799219
1.1476626552429509687
1.147505854632058675
1.14744964350180223
1.147506369201177101
1.147636897739179096
1.1477798624751873735
1.1478920633727163203
1.1479704438462958738
1.1480450917463345117
1.149131383436414966
1.1492192783240173792
1.1492732030053194325
1.1492920434865940837
1.1492810563793485201
1.1492479903462249347
1.1492016222787331259
1.1491499417774238001
1.1491003874602538914
1.149058775515083175
1.149028108349958055
1.1490075377026749415
1.148993180186704155
1.1489779708538685465
1.1489546908588126328
1.1489157597700148106
1.1488582357478227536
1.1487777767731079948
1.1486834455514498554
1.1485771045922950062
1.1484773153932066325
1.1472307477851737545
1.1472257356418618102
1.1472199382309997695
1.1472344154969025265
1.1472595671423899688
1.1472610812667476399
1.1472027607324573051
1.1470792146328210315
1.1469280722832044805
1.1468061775102706967
1.1467602891480768168
1.1468046630191319757
1.1469069402513722977
1.1470046495464514269
1.1470516536928760942
1.1470421286472523015
1.1470113829446042519
1.1470182140658660153
1.1471184945677392886
1.1473359656041053345
1.1476438980947418766
1.1479687604942554469
1.1482182843956776352
1.1483152151835676058
1.1482294037529239272
1.14799303822489418
1.147690816647962686
1.1474241722350573269
1.1472696301764642168
1.1472535028587633743
1.1473486851496992323
1.1474966681447642536
1.1476446710830239262
1.1477713234391258013
1.149187557223763978
1.1492251521909191414
1.149229158711582155
1.1492058359945107604
1.1491640337306585629
1.1491134456666309838
1.1490616260494692646
1.1490137560299624742
1.1489728205899867319
1.1489402780374824431
1.1489153878579461132
1.1488962143946639394
1.1488773085650219041
1.1488526091246611394
1.1488148173163470478
1.1487600408222020665
1.148683981749016203
1.1485928981069730703
1.148488681413120549
1.1483865734775979828
1.1472241855223792584
1.147311026220538821
1.1473831838467500877
1.1474398427058765115
1.1474693175337320472
1.1474473859601339587
1.1473617782574283552
1.1472321984045779075
1.1470978139443812616
1.1470011508740904915
1.1469699437974245626
1.1469956672955661237
1.1470412155862721448
1.1470746986357041042
1.1470874063897635864
1.1470941189659973336
1.1471263161236913142
1.147219548154117863
1.1473996589701636051
1.1476658887340394077
1.1479826029904749429
1.1482814606914759636
1.1484843678622502772
1.1485308988799731722
1.1484000640514364644
1.1481212026937337445
1.1477680861987547001
1.1474352110134367067
1.1472020234412472206
1.1471071793049840704
1.1471428869046289556
1.1472668642177039633
1.1474284315746270391
1.1475921354565437049
1.1491164130972864044
1.1491311573888864928
1.149116026546268543
1.1490791624223630762
1.1490295226744169366
1.1489759606018770111
1.1489250430379822632
1.1488809742251329116
1.1488454772397771464
1.1488188104779382126
1.1487990706215587267
1.148784607441996064
1.1487706729558015972
1.1487526467869266789
1.1487241754493850987
1.1486808090848970032
1.1486183613948208748
1.1485398870206335875
1.1484470140927727222
1.1483503641160694997
1.1474069618688287342
1.1475654806546782272
1.147659691131037718
1.1476787367211658264
1.1476256372393704996
1.1475238553146147602
1.14741098966874433
1.1473234069526985213
1.1472779754051813939
1.1472613015460024766
1.1472459804427392882
1.1472182844053666617
1.1471901181332557762
1.1471902162173668316
1.1472465929880695246
1.1473727468034355947
1.1475634862456218777
1.1478026208943776787
1.1480667404356756922
1.148322747758166118
1.1485300471512598364
1.1486462982020895218
1.1486383466868614889
1.148495304831785413
1.1482354887844887781
1.1479045108555643306
1.147567426184953332
1.1472909086526505984
1.1471218059999104266
1.1470769020993165643
1.1471436653953157592
1.1472872970922876057
1.1489835299483726061
1.1489499357878749652
1.1489007602211613879
1.1488457030750669485
1.148792894219136107
1.1487475151411936647
1.1487124962322619037
1.1486886677758310071
1.1486758269969463697
1.1486713815287912244
1.148673289711961365
1.1486761152221036664
1.1486753004252336918
1.1486645492858207351