/*--------------------------------*- C++ -*----------------------------------*\
  =========                 |
  \\      /  F ield         | OpenFOAM: The Open Source CFD Toolbox
   \\    /   O peration     | Website:  https://openfoam.org
    \\  /    A nd           | Version:  12
     \\/     M anipulation  |
\*---------------------------------------------------------------------------*/
FoamFile
{
    format      ascii;
    class       volScalarField;
    location    "0.00518";
    object      alphat;
}
// * * * * * * * * * * * * * * * * * * * * * * * * * * * * * * * * * * * * * //

dimensions      [1 -1 -1 0 0 0 0];

internalField   nonuniform List<scalar> 
106891
(
7.3682961237084751405e-06
7.3606857483791040658e-06
7.3516400360569435004e-06
7.3444872282948034517e-06
7.3357887722769624735e-06
7.3291833453238707752e-06
7.3210666862205654197e-06
7.31488572488203355e-06
7.3071001516966948791e-06
7.301014319331054375e-06
7.2920945725401709424e-06
1.1226764063532570695e-05
1.1218316282289851501e-05
1.1207390804023917394e-05
1.1188974078212828177e-05
1.1163752943020907983e-05
1.1138442422689986147e-05
1.1113662507594433793e-05
1.1092065576574975839e-05
1.1073110698963773113e-05
1.1057295888259753143e-05
1.1042421617086350244e-05
1.1028638490450908067e-05
1.1014340051004312522e-05
1.100090755235654525e-05
1.0987385410720968451e-05
1.0974917821262070199e-05
1.0962028206338165484e-05
1.0949238728752530339e-05
1.0935214145219765127e-05
1.0921035996889379353e-05
1.090630665052741805e-05
1.0892574360135129564e-05
1.087897706593138183e-05
1.0866647322263031463e-05
1.0854482207092877528e-05
1.0843139576765426391e-05
1.0831153247411637761e-05
1.0819548128106291213e-05
1.0807124579916729096e-05
1.0794762690440443096e-05
1.078135594869658263e-05
1.0768183414744629054e-05
1.0754489235985144346e-05
1.074174286104138555e-05
1.0728407265954123374e-05
1.0715215749702068106e-05
1.070078485958801231e-05
1.0686204879167749665e-05
7.8260047048257311568e-06
7.817488690147705139e-06
7.8106596719408413759e-06
7.8019202788113659519e-06
7.7946395534980974015e-06
7.785277439545261184e-06
7.7773829830261860887e-06
7.7675500164672249819e-06
7.7592986185698196506e-06
7.7492914329689844253e-06
7.7410704817064570862e-06
7.7311658730231002436e-06
7.7233695526852523164e-06
7.7138138397584973192e-06
7.7065896330254991022e-06
7.6977443263155410246e-06
7.6910532518279788077e-06
7.6826273852759451857e-06
7.6761741117802292423e-06
7.6666475339304427722e-06
1.1817427818598657939e-05
1.1803933391663480349e-05
1.1779963438240848326e-05
1.1752863304442293956e-05
1.172514705779488166e-05
1.1699646846584908934e-05
1.1676467991548047646e-05
1.1657291979833176324e-05
1.1640382371288544392e-05
1.1625564945710763472e-05
1.1610368167764660772e-05
1.1595681137197581736e-05
1.1580492002348705591e-05
1.1566432018649667299e-05
1.1552495852223720589e-05
1.1539445904248875723e-05
1.1525619864220096726e-05
1.1511494858040170969e-05
1.1496114127730792956e-05
1.1480954821797746825e-05
1.146532972534364157e-05
1.1450887391823013237e-05
1.143683137925207185e-05
1.1424242095005109038e-05
1.1411461620129392791e-05
1.1399453725011555685e-05
1.1386781099365064551e-05
1.1374356201694481189e-05
1.1360721383316774741e-05
1.1346884653532266044e-05
1.1331858889337046407e-05
1.1317582605760484994e-05
1.1303027609392016716e-05
1.1289372814045331217e-05
1.1275051022760550299e-05
1.1260773199883094224e-05
8.2340207926064174594e-06
8.2246627378232974287e-06
8.2170975308056170601e-06
8.2074019552200472722e-06
8.199364058369575369e-06
8.1890964339862666935e-06
8.1805302098904167721e-06
8.1698930482250283798e-06
8.1611066400487035881e-06
8.1503595863456610896e-06
8.1415835709327260162e-06
8.1308938044228205497e-06
8.1225020320741284189e-06
8.1121063756717341357e-06
8.1042263466050084393e-06
8.0945167468420436442e-06
8.0872081775398417958e-06
8.0779939766584755295e-06
8.0710258050390183671e-06
8.0607058329721013282e-06
1.245732774638395643e-05
1.2446964136821710826e-05
1.2429672845715057848e-05
1.2400135678081550757e-05
1.2368098528355320965e-05
1.2338657720560548687e-05
1.231187200966550809e-05
1.228927802217409017e-05
1.2269218037816733186e-05
1.2251600761476164915e-05
1.2233852751592527611e-05
1.2216925009792608815e-05
1.2199635021795492617e-05
1.2183721851494748223e-05
1.2168080328825950527e-05
1.2153658317149928733e-05
1.2138758715893693441e-05
1.2123772948563641547e-05
1.2107451562883800067e-05
1.2091139908933098778e-05
1.2074127401031756031e-05
1.2058241489118488963e-05
1.2042727726126982847e-05
1.202874898932758773e-05
1.2014771047691805099e-05
1.2001719085573622035e-05
1.1988080916652512953e-05
1.1974620620762578183e-05
1.1959818643531519323e-05
1.1944637280372866106e-05
1.1928091081445574406e-05
1.1912221676738585964e-05
1.1896171455035664348e-05
1.1881401238945323405e-05
1.1866476892520410526e-05
1.1852126241567629173e-05
8.6529999819269867462e-06
8.6446298612344638052e-06
8.6339121748493893367e-06
8.6250835494579942628e-06
8.6139178703732506191e-06
8.6047604134869732652e-06
8.5934374536186194812e-06
8.5841748897620126285e-06
8.5728098125265799688e-06
8.5636336264024781389e-06
8.5522569584232523929e-06
8.5433178454097236511e-06
8.5320581949267105669e-06
8.5235085682969786015e-06
8.5128491135264400925e-06
8.5048224315687894295e-06
8.4946194327647133398e-06
8.4869649265664018773e-06
8.4756354272679314298e-06
1.3126513939591013297e-05
1.309291540623279072e-05
1.305762145640430581e-05
1.3024155844206239055e-05
1.2992482655379229342e-05
1.2964577665556893787e-05
1.2939458284341107187e-05
1.2917873972868385425e-05
1.2897461087722641662e-05
1.2878721776317075183e-05
1.2859664834055379022e-05
1.2841693674588374431e-05
1.2823858777165949018e-05
1.2807668376121824358e-05
1.2791850682061969683e-05
1.2776893486215496084e-05
1.2761086166692239049e-05
1.2745133290357669415e-05
1.2727759414895595759e-05
1.2710762347076561002e-05
1.2693466384345807686e-05
1.267757041397678029e-05
1.2661821835265911758e-05
1.2647452439041043389e-05
1.2632852066994996231e-05
1.2618806158718383776e-05
1.2603700133229835275e-05
1.2588427172693494177e-05
1.257140758354021698e-05
1.2554277263365396059e-05
1.253615599078719362e-05
1.251927730170906088e-05
1.2502950005769565211e-05
1.2488324885516529896e-05
9.1143956919740049541e-06
9.1030918626978285697e-06
9.0939076069215414984e-06
9.082155653842173532e-06
9.0725731492938493597e-06
9.0606194759023998256e-06
9.0509866156748138656e-06
9.0391308723996171843e-06
9.0296295301719909797e-06
9.0178618232913765687e-06
9.0084082231637016997e-06
8.9964857893538050047e-06
8.9871304331177084265e-06
8.9750587422378090482e-06
8.9658383151765029876e-06
8.9540645839974612524e-06
8.9451991350733804371e-06
8.9338031514356646345e-06
8.9252919659788459766e-06
8.9127224417349177661e-06
1.381427084688724281e-05
1.3787417403966473106e-05
1.3752050760450010088e-05
1.3717362899171233151e-05
1.3685865818419899647e-05
1.3656597825220199644e-05
1.3630817709210740714e-05
1.3606641968721796662e-05
1.3585041335341727894e-05
1.3563726303745458936e-05
1.3543625991023666274e-05
1.3523322476862351094e-05
1.3504402433186179187e-05
1.3486023724262937037e-05
1.3469381409151614618e-05
1.3452999125902928535e-05
1.343730554384363419e-05
1.3420189056819228207e-05
1.3402934340864888915e-05
1.3384511472728764735e-05
1.3366927400512213691e-05
1.3349103353151217831e-05
1.333272888559209288e-05
1.3316384527869605934e-05
1.3301070363405360927e-05
1.328507791656249003e-05
1.3269393368313941791e-05
1.3252142677451819494e-05
1.3234645832870727545e-05
1.3215416269171706461e-05
1.319663999269602583e-05
1.3177951489159081652e-05
1.3161420364989765268e-05
9.5759859673094777901e-06
9.5659076878532965508e-06
9.5531299484288721208e-06
9.5428623316259086239e-06
9.5301794676631226014e-06
9.5201977811835988646e-06
9.5079332447431985143e-06
9.4983186053694272953e-06
9.4862461242552270559e-06
9.4766996120324338565e-06
9.4643777567925481441e-06
9.4547159269671539116e-06
9.4418942168562253246e-06
9.4320865378000146256e-06
9.4191926362994332736e-06
9.4094368526855523869e-06
9.3966808289507348516e-06
9.3871575974878993572e-06
9.3731583850348033351e-06
1.4501872272241592661e-05
1.4468327364269687436e-05
1.4433717896266400426e-05
1.4402198314046847237e-05
1.4372882841279052435e-05
1.4346831057569088311e-05
1.4321964931805149075e-05
1.4299430359269693129e-05
1.4277090043049470589e-05
1.4256085632478471281e-05
1.4234802320086664611e-05
1.4214889379921278521e-05
1.4195531936583704474e-05
1.4178161774705629777e-05
1.4161361419112779444e-05
1.4145508245552097424e-05
1.4128316207267073651e-05
1.4110866061738523255e-05
1.4091877750999492623e-05
1.4073315165477949626e-05
1.4054280810970237181e-05
1.4036531881816345069e-05
1.4018738205768859135e-05
1.400192142496123198e-05
1.3984402619234445768e-05
1.3967184192243931211e-05
1.3948510191559825846e-05
1.3929837285287836684e-05
1.390969037603652726e-05
1.3890194842003414537e-05
1.3870836909058001626e-05
1.3853845724239073018e-05
1.0073195992371293753e-05
1.006218828273110933e-05
1.0048422851169031561e-05
1.0037553508553873739e-05
1.0024161290267313081e-05
1.0013897155024782397e-05
1.0001223072704965939e-05
9.9915399140242875238e-06
9.979194683496598879e-06
9.9695863660670215925e-06
9.9568263070345800533e-06
9.9468196969852294194e-06
9.9332559967602038952e-06
9.9228432541173044134e-06
9.9089113592807028278e-06
9.8983103558200508538e-06
9.8842174579413672868e-06
9.8736197583743916289e-06
9.8584363569667471665e-06
1.5257344189345999947e-05
1.5218956682552742878e-05
1.5182732891026441308e-05
1.5150793687898939476e-05
1.5121199973785512909e-05
1.5094877513344655325e-05
1.506920529201996859e-05
1.5045222815132441047e-05
1.5021187326108164669e-05
1.4998574451930849003e-05
1.4976209683897888323e-05
1.4955675275703484586e-05
1.4936066051225619733e-05
1.4918422517449950269e-05
1.490044884246446504e-05
1.4882821206088452364e-05
1.4863382847203536087e-05
1.4843772165318793355e-05
1.482288050800332631e-05
1.4802808113556044161e-05
1.4782521536979971073e-05
1.4763380770936097072e-05
1.4743734605048048825e-05
1.47248714208670419e-05
1.4704975925095202738e-05
1.4685602075727631434e-05
1.4664991827141536968e-05
1.4645016746032460782e-05
1.462459400318198172e-05
1.460588946625344825e-05
1.0585174296209117858e-05
1.0570487599829774087e-05
1.0559084832794634937e-05
1.0545052597582886512e-05
1.053452801561306231e-05
1.0521397265253794258e-05
1.0511540864800410634e-05
1.0498741757294408029e-05
1.0488891261388561143e-05
1.0475525300877547936e-05
1.0465071387586850308e-05
1.0450787354403063629e-05
1.04397352307141956e-05
1.0424838766150495658e-05
1.0413413928670661867e-05
1.039813834408822927e-05
1.0386575156763389172e-05
1.0370307569655215857e-05
1.6016194262731372935e-05
1.5981099314233305087e-05
1.5948742396270767981e-05
1.5920844389934458687e-05
1.5894368337864495848e-05
1.5870087208726760275e-05
1.5845656572708550027e-05
1.5822514693091903456e-05
1.5799205093149127792e-05
1.5777428986394714631e-05
1.5756011583447549114e-05
1.5736353980122699651e-05
1.5716444415417359245e-05
1.5697724430630845114e-05
1.5677728797751876427e-05
1.5657848831695818966e-05
1.563619942639098674e-05
1.561496422976578824e-05
1.5593103149029880074e-05
1.5572292464298506003e-05
1.5550693646003498316e-05
1.5530070679159050571e-05
1.5508687319423422992e-05
1.5488437655429364943e-05
1.5467429782847961464e-05
1.5447407877235997135e-05
1.542682424788862207e-05
1.5407524274472905311e-05
1.114593118968720867e-05
1.1130815009659156733e-05
1.1119218524365894572e-05
1.1104980738282652975e-05
1.1094274163609735187e-05
1.1080811846455649355e-05
1.1070596841959297229e-05
1.1057286024190598626e-05
1.1046976547734572397e-05
1.1033017584293707314e-05
1.1022086395241381294e-05
1.1007261438437997912e-05
1.0995683423268944111e-05
1.0980147130196911219e-05
1.0968127011161544332e-05
1.0952136212831629013e-05
1.0939956841593835219e-05
1.0923368188860268371e-05
1.677799514015902691e-05
1.674627897247201041e-05
1.671870559112313844e-05
1.6692602768142994349e-05
1.66687897333343581e-05
1.6645335114628447422e-05
1.6623689385304870562e-05
1.6602333758530996602e-05
1.6582302000137403235e-05
1.6561937690856994812e-05
1.6542068075297211902e-05
1.6521136299384135958e-05
1.6500810769257281225e-05
1.6479452779964443845e-05
1.6458497248519975126e-05
1.6436455200004239613e-05
1.641503156133732917e-05
1.6393227746798606884e-05
1.6372382971857749924e-05
1.6350914033697523154e-05
1.6330376388088266618e-05
1.6309349190238758886e-05
1.6289640523810904028e-05
1.6269639055318902771e-05
1.6250973719134004832e-05
1.623180833403310556e-05
1.6213679646343462062e-05
1.1690915170894539561e-05
1.1675867797199363879e-05
1.1662495077126249808e-05
1.164810955268712016e-05
1.163506558927116934e-05
1.1620674913653290596e-05
1.1607292110080521695e-05
1.1592511216162509622e-05
1.1578343303703559779e-05
1.1563075707129402448e-05
1.1548273287144416804e-05
1.1532511842936584326e-05
1.1517296465547395069e-05
1.1501198141470750445e-05
1.1485672896159927373e-05
1.1469308751467275584e-05
1.145361043880053325e-05
1.7339291298494838062e-05
1.7304186813487330008e-05
1.7272765338015632285e-05
1.7243435530766129308e-05
1.7217341928590081205e-05
1.7192595267537590873e-05
1.717084089218315869e-05
1.7150401488786254568e-05
1.7132164543294663996e-05
1.7113608155076716593e-05
1.7095246866284225076e-05
1.7075051246372418965e-05
1.7054825969310874044e-05
1.7033132027287659852e-05
1.7012140687262660712e-05
1.6990301277383058009e-05
1.6969313620552873819e-05
1.6947911706730973215e-05
1.6927680284038769328e-05
1.6906992924840625388e-05
1.6887584781102989525e-05
1.6867816918284635528e-05
1.684922249631819454e-05
1.6830344321899375114e-05
1.6812953430795760828e-05
1.6795119040327675507e-05
1.6778210497100365779e-05
1.2026171527188831486e-05
1.2012635558894727261e-05
1.1993763785952168871e-05
1.1980081468459366278e-05
1.1960641722803243709e-05
1.1946288203555254618e-05
1.192615235094753891e-05
1.1911354721294540007e-05
1.1890819329854003034e-05
1.1875822597779266493e-05
1.1855123719278517529e-05
1.1840198785536434315e-05
1.1819380365026200107e-05
1.180463957264623828e-05
1.1780455570722074085e-05
1.1773860386146306437e-05
1.3584076006006256699e-05
1.3558457530118981626e-05
1.3533973046802509708e-05
1.351166456375427865e-05
1.3490936822884332712e-05
1.3473271905567243007e-05
1.3457391876784696264e-05
1.3444129873153949089e-05
1.343126259177022991e-05
1.3419578369183195448e-05
1.3406892245604987404e-05
1.3394307676019360761e-05
1.3380322844492746059e-05
1.3366842838842679449e-05
1.3352395021392719088e-05
1.3338451324432089607e-05
1.3323789516266277408e-05
1.3309710117204114592e-05
1.3295370887578696046e-05
1.3282274921589392474e-05
1.3269073745649692574e-05
1.3257073017340661767e-05
1.3244937887312228971e-05
1.3233449892365019044e-05
1.3221596567798203729e-05
1.321039112174562622e-05
1.3198241411178583858e-05
1.3185960552328274915e-05
9.3407970656584591055e-06
9.3253756858238567493e-06
9.3140836194457005636e-06
9.2981648363085852205e-06
9.286368743837558406e-06
9.2699141140312082114e-06
9.2578902422952001763e-06
9.2413339428651971718e-06
9.229322484803115684e-06
9.2128869174393977049e-06
9.2011396991613801015e-06
9.1847763121092098335e-06
9.1732543121963627586e-06
9.1543547236739698743e-06
9.1518230199417955538e-06
1.2839009467951701608e-05
1.2811682483124637265e-05
1.278663176577048873e-05
1.2763110068733071788e-05
1.2742796439513734476e-05
1.2724404687441723708e-05
1.270876762697128788e-05
1.2693617474288751383e-05
1.267964721889907008e-05
1.2665211562634622178e-05
1.26513899789227403e-05
1.2636701430633293463e-05
1.2622549790798909874e-05
1.26074156315934561e-05
1.2592680672479806815e-05
1.2577118977558738458e-05
1.2562138805685137445e-05
1.2546948016425730406e-05
1.2533019322395500547e-05
1.2519113680862012502e-05
1.2506581053417612252e-05
1.2494009613437474915e-05
1.2482186563158640977e-05
1.2469674914721234652e-05
1.2457365951125330583e-05
1.2443661274526702761e-05
1.2429718973969629828e-05
8.8827466600688518699e-06
8.8720640249800087381e-06
8.8575881161866202001e-06
8.8466112055946569603e-06
8.8318641724637676256e-06
8.820874440460096583e-06
8.8062651925321372431e-06
8.7954574031703676163e-06
8.7810275754929698397e-06
8.7704771361117577356e-06
8.7560594713615822225e-06
8.7455855722108446403e-06
8.7293302429324661922e-06
8.7220601512400058018e-06
1.2335120174961392117e-05
1.2310859200475362052e-05
1.2287640258262686962e-05
1.2267187062989758762e-05
1.2248356250102936338e-05
1.223200403871484031e-05
1.2216108380181026327e-05
1.2201555695403611305e-05
1.218704894506581652e-05
1.2173713325314000158e-05
1.2160045028776560557e-05
1.2147058811784380364e-05
1.2133046609934948731e-05
1.2119227384644293245e-05
1.2104441106466972151e-05
1.2090086062380747374e-05
1.2075370388554124067e-05
1.2061732555021695585e-05
1.2048105046642410739e-05
1.2035948789921431333e-05
1.2023838220962561592e-05
1.2012352622692351863e-05
1.199980137166225596e-05
1.198702030881829581e-05
1.1972557758998482246e-05
1.1957932285384158675e-05
8.5458727906926886897e-06
8.5316306481684189291e-06
8.5208896200453679922e-06
8.5067558114855848506e-06
8.4962153633091390756e-06
8.482292922734155252e-06
8.4719638538073507324e-06
8.4581920533261767642e-06
8.4480092515587487158e-06
8.4341894395297869054e-06
8.4240645756479508576e-06
8.4088700325100847232e-06
8.4011848708316471122e-06
1.1849771417474574351e-05
1.1827128340966525276e-05
1.180678916197804792e-05
1.1787610295646429486e-05
1.1770621522831191256e-05
1.1754146628419475268e-05
1.1739236020399054997e-05
1.172471782003942473e-05
1.171178035241670307e-05
1.1698981204501331837e-05
1.1687127070036718485e-05
1.167436244991292452e-05
1.1661658102148601276e-05
1.1647829462989757189e-05
1.1634195373565649003e-05
1.1619961543448086006e-05
1.1606536579898062858e-05
1.1593013710465033559e-05
1.1580922559850825683e-05
1.1568947534903202404e-05
1.1557512986874536297e-05
1.154489817109329605e-05
1.1531821038735076942e-05
1.1517091422018842071e-05
1.1502322360443581603e-05
8.2094381578804432567e-06
8.1989330501327891467e-06
8.1853811065126915532e-06
8.1752846766704750659e-06
8.1619647691401504412e-06
8.1520184359010949344e-06
8.138720868185171138e-06
8.128836965293865526e-06
8.115474079583611785e-06
8.1056456274854536112e-06
8.0909833984868798697e-06
8.083624124009967715e-06
1.1388438777842498401e-05
1.1367983533691736789e-05
1.1348519491233212243e-05
1.1331085638248771479e-05
1.1314151010725705622e-05
1.1298848848047547653e-05
1.1284132404376205774e-05
1.1271275962067890352e-05
1.1258935191129346344e-05
1.1247823827910982501e-05
1.1236020878769167967e-05
1.1224281293172060401e-05
1.1211337102380304915e-05
1.119842327097627761e-05
1.1184697075569279318e-05
1.1171544452394916824e-05
1.1158136438924588329e-05
1.1146056337008513744e-05
1.1134104003064261912e-05
1.1122668477786305064e-05
1.1110005600708999104e-05
1.1096821451254440429e-05
1.1082108306962944761e-05
1.1067659858681593653e-05
1.0940289218763086639e-05
1.0921750850245561193e-05
1.090502126056904968e-05
1.0888603381624164718e-05
1.0873602291146229555e-05
1.0859046518272793842e-05
1.08463192438174328e-05
1.0834278376476165593e-05
1.0823708470867427636e-05
1.0812740527393401051e-05
1.0801898911903043681e-05
1.0789810243579464141e-05
1.0777652453237694763e-05
1.0764626855624718916e-05
1.0752106117987333787e-05
1.0739220983703185591e-05
1.0727417590490679041e-05
1.0715523707798957755e-05
1.0703976930636576904e-05
1.0691212018408361776e-05
1.0678031740254596531e-05
1.0663571286075153934e-05
1.0649571335174407851e-05
1.0500299121041310391e-05
1.0483566576307177954e-05
1.0468031623946109145e-05
1.0452819281889321978e-05
1.0439492625133903618e-05
1.0427082831744879669e-05
1.0416368572750165248e-05
1.040554804673850405e-05
1.0395044307157018203e-05
1.0383464603211406096e-05
1.0371885420563352941e-05
1.0359490977499965716e-05
1.0347611346823668506e-05
1.0335333941127448123e-05
1.0323896816759830743e-05
1.0312040732861133994e-05
1.0300261051375818078e-05
1.028731401948712006e-05
1.0274211704209520299e-05
1.0260152230128118998e-05
1.0246677626081790796e-05
1.0044901250623236087e-05
1.0032507333025030143e-05
1.0021789951790469771e-05
1.0011124202187090179e-05
1.0000900854728679747e-05
9.9897506803957781299e-06
9.9787133434734512632e-06
9.9669992152379822091e-06
9.9558522160534995878e-06
9.9442603049382014528e-06
9.9332337140351054279e-06
9.9215017488083563548e-06
9.9096380941184841024e-06
9.8966713409482324749e-06
9.8837168356704885151e-06
9.8700872182391332439e-06
9.8572209711977002301e-06
9.6278391916830320516e-06
9.616704795485882983e-06
9.605815069908585062e-06
9.5944106975270833414e-06
9.5836914659550907314e-06
9.5725698812167683897e-06
9.5618451337520761154e-06
9.5501900126971456354e-06
9.5382477605101273222e-06
9.525255231981230079e-06
9.5124017853514574637e-06
9.4990660941810129163e-06
9.4865699494882383525e-06
9.255869824465173118e-06
9.2453517636137957177e-06
9.2344418134760257422e-06
9.2242068860188434294e-06
9.2135982214404117918e-06
9.2033247858882216778e-06
9.1920575062098425223e-06
9.180395056693516778e-06
9.1676803579139046278e-06
9.1551423832990643875e-06
9.1422218758765581343e-06
9.1301206239812631083e-06
5.1978435956664873253e-06
5.1538941879051361155e-06
5.1239414996929568669e-06
5.1066799251242085716e-06
5.0982867351270276407e-06
5.0949499114810711117e-06
5.0954811066518880235e-06
5.1115313580024425601e-06
5.1561410345797475165e-06
5.1930979272425496695e-06
5.2165780316249457665e-06
5.2270282894042326184e-06
5.2278096216795891582e-06
5.2240307187716132636e-06
5.2163458961167414449e-06
5.1967579940435322368e-06
5.1731059024529882329e-06
5.15902041126785098e-06
5.1526262669147208361e-06
5.1498768640263600435e-06
6.9172866082366740823e-06
6.9061779398553598767e-06
6.9006976484581802347e-06
6.8968598964191214166e-06
6.8933777295780253785e-06
6.8905685763666933501e-06
6.8884910729185564105e-06
6.8885970821548907729e-06
6.890369698765031801e-06
6.8931901409776070376e-06
6.8939902412406895411e-06
6.8911840167287302043e-06
6.8863070204637641801e-06
6.8788976030036449899e-06
6.8624994359067806486e-06
6.8163102940880310055e-06
6.73357372749236446e-06
6.6633862632436425185e-06
6.6122239037360589013e-06
6.5798303033807883252e-06
6.5621731942466132153e-06
6.5536084125762439739e-06
1.1299250918866001836e-05
1.1223257833150645241e-05
1.1165217607776831995e-05
1.1124258611226638327e-05
1.1093579820292019726e-05
1.1068902561291702364e-05
1.1048977116266126745e-05
1.1031232199282122068e-05
1.1015992511378314251e-05
1.1002840466430720455e-05
1.0992818505056273183e-05
1.0985982394777469326e-05
1.0978171982970618857e-05
1.0968933403690020424e-05
1.0956035441951099342e-05
1.0931931653140062661e-05
1.0872087274464771906e-05
1.0744458002938069626e-05
1.0619475905225058221e-05
1.0516592760761826753e-05
1.0439685361216778515e-05
1.0388065597587530157e-05
1.0356134431159301384e-05
1.0336337770649832706e-05
1.0322603212455548155e-05
1.0310970868251461034e-05
2.4130065438258281303e-05
2.4071573262566797865e-05
2.4034503493900933772e-05
2.4012375256153082443e-05
2.3998076092362472428e-05
2.398494856052888025e-05
2.397047307339680733e-05
2.3953279428485266212e-05
2.3932517381104962876e-05
2.3908766416585363127e-05
2.3883032202740841696e-05
2.3854951779983103684e-05
2.382456682824077174e-05
2.37887685321304962e-05
2.3736764475020089384e-05
2.3638386590312282807e-05
2.3510011267289967866e-05
2.3376049789307311576e-05
2.3248067766335110359e-05
2.3138056501327872145e-05
2.3051933153295642222e-05
2.2991454442151580494e-05
2.2951304993095802569e-05
2.2922890888074684936e-05
2.2898773445196581266e-05
2.2875194294967234347e-05
2.2850475413285957976e-05
2.2821408952750414455e-05
5.7638851973402152455e-05
5.7542291652258258062e-05
5.7465838801094730524e-05
5.7407379146596715044e-05
5.7365167037325625558e-05
5.7333453624576569759e-05
5.730271760128853928e-05
5.7262059208610441828e-05
5.7210320319987463175e-05
5.7150485117322228647e-05
5.7088096302120466027e-05
5.7028745815275820044e-05
5.6971204114344452317e-05
5.6899567045137785615e-05
5.6780890956690879281e-05
5.6628352379683613127e-05
5.6456710544048745409e-05
5.6282713889587473836e-05
5.6122085462950060172e-05
5.5982109947926767034e-05
5.5866166050214326438e-05
5.5774485377995539005e-05
5.5696898843366060149e-05
5.5629462362523802174e-05
5.5563576024918949112e-05
5.5500938744666243857e-05
5.5436260644522182865e-05
5.5370477375446356001e-05
5.5296737377128575217e-05
5.5220057598967509614e-05
9.8698347970897751702e-05
9.8503816985105450998e-05
9.8302801566331981077e-05
9.8102547778769559053e-05
9.7914160608967800749e-05
9.7747944305122890733e-05
9.7601936822587660996e-05
9.7461177926244803695e-05
9.7306923374722067966e-05
9.7129791823507476232e-05
9.6935616070991590916e-05
9.6740976235693221458e-05
9.65606651487403505e-05
9.6397795285070334514e-05
9.6243626473493815317e-05
9.608695232383142131e-05
9.5923755863967563378e-05
9.5759742523649448147e-05
9.5603616958047366579e-05
9.5459874940622294688e-05
9.5323838344959095073e-05
9.5185709143064979858e-05
9.5035510196722842026e-05
9.4872671711246773824e-05
9.470384596629513466e-05
9.4540013451181764042e-05
9.4386243502996114798e-05
9.4240324027709360078e-05
9.409190281067554703e-05
9.3935200424459852956e-05
9.3772493677678065414e-05
9.3612503367378253915e-05
0.00012616008612640895433
0.00012588668266490750706
0.00012560397030105140332
0.00012532882209928157069
0.00012508129094138974494
0.00012487433918937531469
0.00012470587860195255078
0.00012455358165619430421
0.00012438911309114338813
0.00012419654519459129706
0.00012398197094862665264
0.0001237665137841788103
0.00012356937141551696275
0.00012339426187891466293
0.00012322680205045349324
0.00012304856403806726096
0.00012285201878237450904
0.00012264508861132200407
0.00012244197419987535376
0.00012225116451904520271
0.00012206771089554395145
0.0001218783474145769118
0.0001216719560990994493
0.00012145114207210172292
0.0001212303821262534809
0.00012102640928100936882
0.00012084665862891067541
0.0001206826592849228458
0.00012051562472174137284
0.0001203324408398671869
0.00012013397094159312711
0.00011993541580671154096
0.00011974720564055383785
0.00016245699009984605429
0.00016163527548867853418
0.00016082952734150840674
0.00016002435208750854677
0.00015923734701241509348
0.00015851192871214780824
0.00014029526849985613532
0.00014000331985504669923
0.00013969812448832454564
0.0001394016355639179439
0.00013914021292567942036
0.00013893059868791207082
0.00013876901396661766989
0.00013862658654398678508
0.00013846594924806401969
0.00013826733428323281804
0.00013803837837251156759
0.00013780744772466167031
0.00013759967256720865387
0.00013741945669665172149
0.00013724744952983336977
0.00013705984967417225153
0.00013684731828267883099
0.00013662155494579013206
0.00013640249902590310558
0.00013620081014418026046
0.00013600890493977829373
0.00013580818127669790139
0.00013558454829845539348
0.000135341567963680404
0.00013509994887166628676
0.00013488130249610953953
0.00013469406845779109357
0.00013452560504610257893
0.00013435153458264624516
0.00013415462571548340408
0.00013393853596759745621
0.00013372138020125714456
0.00013352203994775391281
0.00013333925877519547747
0.00015355719701266366361
0.00015264100993279511006
0.0001517574964912408108
0.00015089719130000658594
0.00015005630241499056591
0.00014926216858492086627
0.00014855912585283028511
0.00013197898526860627399
0.00013169700124262409611
0.00013143157360518315001
0.00013120567300176777395
0.00013103829088970142015
0.00013092599233953768805
0.00013084291747440316409
0.00013074923912160336861
0.00013061214015037877221
0.00013042822302095728455
0.00013022272843636292002
0.00013003022747253492196
0.0001298685612276485261
0.00012972857167849039645
0.00012958392872046357977
0.00012941390614859213121
0.00012921953481076657914
0.00012902073331402802566
0.0001288376339156183212
0.00012867448243867650004
0.00012851753844271833916
0.00012834713252665147358
0.00012815682097748503417
0.00012795914967170127436
0.00012777875060684108191
0.00012763098655853624946
0.00012751069286146614833
0.00012739457362408623982
0.0001272569589741355501
0.00012708918947068945223
0.00012690468963784013747
0.00012672605919915948302
0.00012656504094168217881
0.00012641451572203597168
0.00012625609003263777688
6.1931142524990980428e-08
6.1954815877277746062e-08
6.2000332911008603871e-08
6.2069514847413393952e-08
6.2095544688911949373e-08
6.2182041825868634998e-08
6.2185107484616641071e-08
6.2250584752955346112e-08
6.2236240127991309857e-08
6.2301887012024186575e-08
6.2297205842878655391e-08
4.9125222711526338332e-07
4.5527752840913302428e-07
4.2024497966174800257e-07
3.8659601935842494872e-07
3.5469099593476127909e-07
3.2478699674440727635e-07
2.9705611122769882998e-07
2.7161305709531249483e-07
2.4852535855495651713e-07
2.2781762182565588428e-07
2.0946231746318891439e-07
1.9338484661371206212e-07
1.7949320789257344976e-07
1.6770000426067173008e-07
1.578798204395737736e-07
1.4983888293159041138e-07
1.4331700551709170104e-07
1.3805671859070567587e-07
1.3378205218544079393e-07
1.3025701592127064812e-07
1.2727907259199009022e-07
1.2475025856534969044e-07
1.2258943284154485418e-07
1.2077746567444939146e-07
1.192685139024467834e-07
1.1805760720106349414e-07
1.1703353173467424553e-07
1.161243000525639045e-07
1.152383319726595128e-07
1.1442568850883435844e-07
1.1372527677407350251e-07
1.1320133256414477023e-07
1.1276294225202773493e-07
1.1229531663640796989e-07
1.1162423083999890246e-07
1.1075823476487140653e-07
6.5374335422914747238e-08
6.5359219891997913081e-08
6.5334309944453161686e-08
6.5294324764252337518e-08
6.524590187439368534e-08
6.5193399601578189643e-08
6.5145406652838543167e-08
6.510600062136511998e-08
6.5080289458275675557e-08
6.5060564976322834778e-08
6.506053716470373418e-08
6.5066861809123466512e-08
6.5075597581586652477e-08
6.5096268354925951254e-08
6.5090205179040475857e-08
6.5108943520004943974e-08
6.5080335834506317957e-08
6.5092043635783375506e-08
6.5053629465758601198e-08
6.5069769889871885542e-08
6.5053507852867223904e-08
5.198123964123940344e-07
4.8066732939269503684e-07
4.4276881359270328026e-07
4.0651662502512209995e-07