/*--------------------------------*- C++ -*----------------------------------*\
  =========                 |
  \\      /  F ield         | OpenFOAM: The Open Source CFD Toolbox
   \\    /   O peration     | Website:  https://openfoam.org
    \\  /    A nd           | Version:  12
     \\/     M anipulation  |
\*---------------------------------------------------------------------------*/
FoamFile
{
    format      ascii;
    class       volScalarField;
    location    "0.00518";
    object      nut;
}
// * * * * * * * * * * * * * * * * * * * * * * * * * * * * * * * * * * * * * //

dimensions      [0 2 -1 0 0 0 0];

internalField   nonuniform List<scalar> 
106891
(
6.4205790565328822259e-06
6.414152762378200098e-06
6.4064022540957470193e-06
6.4001709284329961889e-06
6.3924485456188035257e-06
6.3863978574064543919e-06
6.3788740113251055273e-06
6.3729540443412174418e-06
6.3655231026652973989e-06
6.3596193885228536225e-06
6.3512560388568259758e-06
9.7705957208849933973e-06
9.7629389356074230418e-06
9.753388114386736982e-06
9.7380500649963404027e-06
9.7176416032746802583e-06
9.6977372792504029956e-06
9.6782235533319853869e-06
9.6607328275417430713e-06
9.6444817236464576936e-06
9.6301134033943928817e-06
9.6162572736413175076e-06
9.6035742441635705359e-06
9.5908410264402556392e-06
9.5791087187205946189e-06
9.5673083820434019542e-06
9.5563841544174335133e-06
9.5452639343921260082e-06
9.5347165122948700916e-06
9.5237364208104542034e-06
9.5131044582247054498e-06
9.5020856425979936685e-06
9.4916251677585521205e-06
9.4807531609742346954e-06
9.4704549643415481469e-06
9.4599101104837315018e-06
9.4498721887916592834e-06
9.4392288616792185252e-06
9.4290189502860737101e-06
9.4183339233684657053e-06
9.4080281873697021799e-06
9.3970836312184597615e-06
9.3864118474552750443e-06
9.3751210243625125902e-06
9.3644089906511678782e-06
9.3531043312310578917e-06
9.3421646659902849981e-06
9.3306043198062179987e-06
9.3193096124805069715e-06
6.8210378429871544831e-06
6.8129734936563388496e-06
6.8063995323594453769e-06
6.7982509922445332067e-06
6.7915226882172260854e-06
6.7831626000877115134e-06
6.776263938967364223e-06
6.7678353254417928511e-06
6.7608939420847729418e-06
6.7524820890839213505e-06
6.7456139153543291529e-06
6.7372179745143563457e-06
6.7305356687346363115e-06
6.7221710337137176333e-06
6.7156693977059915638e-06
6.7075675346397751258e-06
6.7012191810580737586e-06
6.6931884942568031427e-06
6.6868720873159809317e-06
6.6778365542941941037e-06
1.0284594451848810928e-05
1.0272615568210839474e-05
1.025248071856115364e-05
1.0230615900913029106e-05
1.0208806384585386863e-05
1.0188738832226233822e-05
1.0169786184119899511e-05
1.0153122548800886049e-05
1.0137525394129589615e-05
1.0123524468120269324e-05
1.0109548988862524099e-05
1.0096541588240959172e-05
1.0083399425552484673e-05
1.0071212490110988862e-05
1.0058990082927396023e-05
1.0047603987919102227e-05
1.0035976757192075303e-05
1.0024769676906919701e-05
1.0013078105486988452e-05
1.0001824091976971971e-05
9.9899753251850481378e-06
9.9786702291363148795e-06
9.9671255569932111349e-06
9.9563692955720015413e-06
9.9451241878639588291e-06
9.9344104180622878496e-06
9.9231762882312710003e-06
9.9124577066951879571e-06
9.901182117757644283e-06
9.8902291974974155587e-06
9.8784948229525042311e-06
9.8673095279922439313e-06
9.8555410710558469272e-06
9.8442677867118445376e-06
9.8324077679042423894e-06
9.8208549866562034578e-06
7.1756581800721351149e-06
7.1669441927471958721e-06
7.1598426012502680538e-06
7.1509904745029374365e-06
7.1437272362999767287e-06
7.1346856689157135087e-06
7.1272826413028714116e-06
7.1182088240056400955e-06
7.1108354456765492495e-06
7.1018040630899781335e-06
7.0944817344985835252e-06
7.0854481590402068082e-06
7.0783158632618882984e-06
7.0693079512786924308e-06
7.062331998214015102e-06
7.0535695843228892737e-06
7.0467563697553852939e-06
7.0380754585120298514e-06
7.031307429035556404e-06
7.0215280282603229262e-06
1.0842021643030643502e-05
1.0832743989920681475e-05
1.0818529014091640765e-05
1.0794650339582723643e-05
1.0769046896158915671e-05
1.0745421713043513728e-05
1.0723162892058535646e-05
1.0703401887747843323e-05
1.0685008535078243313e-05
1.0668600726912114832e-05
1.0652488861405023425e-05
1.0637637886306106712e-05
1.0622776551132302657e-05
1.0609054055658625378e-05
1.0595351607596195705e-05
1.0582659770348456531e-05
1.0569877146126424868e-05
1.0557665905650359556e-05
1.0544967929810185179e-05
1.0532672829028616565e-05
1.0519743393816482604e-05
1.0507414788875477416e-05
1.0494864950951980547e-05
1.0483122179003699563e-05
1.0470970654898862737e-05
1.0459404030279948389e-05
1.0447355449145196465e-05
1.0435798938986873277e-05
1.0423684734227729609e-05
1.0411928423947898985e-05
1.0399437804258501996e-05
1.0387534048080744177e-05
1.0375037483214076038e-05
1.0363053952192398212e-05
1.0350502288255516046e-05
1.0338380905529609535e-05
7.5392715023475030296e-06
7.5316209808671875676e-06
7.5220464654113137283e-06
7.51425004300866974e-06
7.5045390872913495962e-06
7.496674531680711026e-06
7.4869970085142258738e-06
7.4791577860614466027e-06
7.469520038700035744e-06
7.4617912300479387002e-06
7.4521346393842786848e-06
7.4445451489997821273e-06
7.4348464533937883746e-06
7.427380028693844712e-06
7.4179009861275137502e-06
7.4105785607614377066e-06
7.401145560613784906e-06
7.3938724794322098502e-06
7.3832730180635827998e-06
1.142535970726582474e-05
1.1397164844391152898e-05
1.1368249565187783784e-05
1.1341153931013708175e-05
1.1315229763158458017e-05
1.1291747941214346746e-05
1.1269756203029102911e-05
1.1250244765008261908e-05
1.123167418285182643e-05
1.1214923860463535101e-05
1.1198376006775067972e-05
1.1183029591760036518e-05
1.1167721978735964617e-05
1.1153577448951385463e-05
1.1139581337952883684e-05
1.1126481837593522951e-05
1.1113140252752262943e-05
1.1100336963600323362e-05
1.1086842079140717747e-05
1.1073878275324145154e-05
1.1060479208741374256e-05
1.1047873484456410663e-05
1.1034888250977653422e-05
1.1022657427042217162e-05
1.1009952233181483888e-05
1.0997725003016619558e-05
1.0984898092439521078e-05
1.097256492390157902e-05
1.0959498976581986542e-05
1.0946950474686899769e-05
1.0933637438026989311e-05
1.0920871428811847228e-05
1.0907632530486615794e-05
1.0894966349543107879e-05
7.9407724370322094068e-06
7.9306524160215437691e-06
7.9224817534306689716e-06
7.9121899265452820272e-06
7.9038825539115357391e-06
7.8935647605404444735e-06
7.8852813196746391022e-06
7.8750489585092166436e-06
7.8668435895367320044e-06
7.8566598684996285195e-06
7.8484975618634571828e-06
7.8382132951889588911e-06
7.830176447058166404e-06
7.8197649782639709186e-06
7.8117851494402315289e-06
7.8014664494927177154e-06
7.7935800010142708053e-06
7.7832957286569674841e-06
7.775468294709295968e-06
7.7639688990750560743e-06
1.2025677494893012229e-05
1.2003791071691171754e-05
1.1974874630141938144e-05
1.1946403120621590865e-05
1.1920173569898297891e-05
1.1895187876679857986e-05
1.1872635671949591653e-05
1.1851163153610095585e-05
1.1831943044870462758e-05
1.1813253655419011273e-05
1.1795970491046652893e-05
1.1778705208811802123e-05
1.1762570381088735029e-05
1.1746606613077908887e-05
1.1731825565314652775e-05
1.1717166032142368285e-05
1.1703379468921420331e-05
1.1688962622004364295e-05
1.1675126585430271154e-05
1.1660757613324399746e-05
1.1647215182259450711e-05
1.163320475729733319e-05
1.1620004379227146736e-05
1.1606380790181391622e-05
1.1593367412882543731e-05
1.1579735252104319561e-05
1.156665719992158286e-05
1.1552808483169393162e-05
1.1539510675403971278e-05
1.1525326553098944117e-05
1.1511641542452425875e-05
1.1497412883139568649e-05
1.148387148062243809e-05
8.3421680227183641753e-06
8.3334488854849262551e-06
8.3224481235976007046e-06
8.3136552625838880187e-06
8.3027200948685632334e-06
8.2940496474295904555e-06
8.2832835328459613868e-06
8.2747293292127311953e-06
8.2639882557973005212e-06
8.2554483675256563538e-06
8.2445539633579287942e-06
8.2360568910761349388e-06
8.2248896292183907002e-06
8.2164002584511311211e-06
8.2052111813685859904e-06
8.1967395839348803537e-06
8.1855233508253353718e-06
8.1770962617962261265e-06
8.1646390172434390824e-06
1.2629045714272925174e-05
1.2601887393584597474e-05
1.257332679361250526e-05
1.2546709451874898806e-05
1.2521315614580127754e-05
1.2498355145903326625e-05
1.2476348408894363172e-05
1.2456530410105089754e-05
1.2437155494285041652e-05
1.2419215849460766264e-05
1.2401186247822242555e-05
1.2384286614767052808e-05
1.2367553990869614144e-05
1.2352089911939694334e-05
1.2336779217888733736e-05
1.2322356934869185206e-05
1.2307320517593432643e-05
1.2292892647599775325e-05
1.2277865218216341999e-05
1.2263549720342350736e-05
1.2248694038945804515e-05
1.2234549699483607848e-05
1.2219944534108468146e-05
1.2205923695481755471e-05
1.2191278029539008026e-05
1.2177165048196627171e-05
1.2162271524657841407e-05
1.214794077381349359e-05
1.2132738912804632615e-05
1.211809731658856939e-05
1.2102943964953768853e-05
1.2088645837548149658e-05
8.7751144933232252433e-06
8.7658316155443567481e-06
8.754126415158695399e-06
8.7448590591730214586e-06
8.7332461821998520312e-06
8.7241700454125549328e-06
8.7128070928194829191e-06
8.703895828461225863e-06
8.6925926084401546122e-06
8.6836774643061752648e-06
8.6721126565718570454e-06
8.663091379110605852e-06
8.6511425609055860817e-06
8.6420956129018253764e-06
8.6300805504334027576e-06
8.6210520667800638801e-06
8.608946610015421244e-06
8.5999133510004983379e-06
8.5867825404554736255e-06
1.329355893523257141e-05
1.3261803792685929835e-05
1.3231033203816280878e-05
1.3203153819698542506e-05
1.3176822568565847135e-05
1.3153275962245823113e-05
1.3130558032975252905e-05
1.31096867899781624e-05
1.308908115807660165e-05
1.306986360278721453e-05
1.3050789420016005324e-05
1.3032986037919447962e-05
1.3015508250554778003e-05
1.2999356669831624409e-05
1.2982918841985345679e-05
1.2967299689882403729e-05
1.2950969860506397489e-05
1.2935321809698432317e-05
1.2918993610099697265e-05
1.2903323550484322287e-05
1.2887076438155977844e-05
1.2871403532706886074e-05
1.2855081014660230752e-05
1.2839508606053679591e-05
1.2823281961192811596e-05
1.2807794317688359997e-05
1.2791457166398982268e-05
1.2775759843194366803e-05
1.2759493348429081045e-05
1.2744151283813022336e-05
9.2215432300270661347e-06
9.2091223462582967802e-06
9.1993400116266262263e-06
9.1870061335280068778e-06
9.1774622630911549548e-06
9.1654215646393042913e-06
9.1560738410129500423e-06
9.1441048158726756382e-06
9.1347397294405583399e-06
9.1224526179702439163e-06
9.1129047583571863057e-06
9.1002602688933387643e-06
9.090663745110133065e-06
9.0778945844384596037e-06
9.0683009502231808112e-06
9.0553884738319233131e-06
9.0457835462420855025e-06
9.0320287879354356714e-06
1.3962107222672412717e-05
1.393261303772581574e-05
1.3904496538464129548e-05
1.3879510121245712851e-05
1.3855484636991748855e-05
1.3833532883761042741e-05
1.3811815811198740523e-05
1.3791560117180364943e-05
1.3771332060283171175e-05
1.3752397622398716075e-05
1.3733552753572819718e-05
1.3715953565196364747e-05
1.3697968417184664265e-05
1.368118003975438924e-05
1.366382672190666766e-05
1.364733725642000914e-05
1.3629971427508521899e-05
1.3613270432032549846e-05
1.3595909707949601315e-05
1.3579113593336541231e-05
1.3561303111461058701e-05
1.354421424098842376e-05
1.3526515338605880499e-05
1.3509878868175329071e-05
1.3492553181040109226e-05
1.3475964625904107851e-05
1.3458715472989606169e-05
1.3442355176129387105e-05
9.7098585800230630978e-06
9.6970412939611912254e-06
9.6869258531509565497e-06
9.6741560878423371085e-06
9.6641671281430078795e-06
9.65158161488835763e-06
9.641734825882523587e-06
9.6292184213166665213e-06
9.6194284775881750522e-06
9.6066543392856977834e-06
9.5967497468014411753e-06
9.58370139028936212e-06
9.5737153538480650823e-06
9.5604607552353110792e-06
9.5504293381253731415e-06
9.5370036917641679946e-06
9.5269873475122630375e-06
9.5131244541720963475e-06
1.4633747413016609583e-05
1.4606615137265671254e-05
1.4582156054690705342e-05
1.4558436000466563919e-05
1.4536567773561990865e-05
1.4515084596862703667e-05
1.4495275802091066251e-05
1.4475793373398127464e-05
1.4457540245404799001e-05
1.443912650260297751e-05
1.442134854442229697e-05
1.4402966179626388725e-05
1.4385557837549858436e-05
1.436777084259130248e-05
1.435081949886047292e-05
1.4333223210489543924e-05
1.4316198256057671788e-05
1.4298641594666791635e-05
1.4281639359506235096e-05
1.4263867951895472459e-05
1.4246772962638022146e-05
1.4229100586095205726e-05
1.4212317517253717899e-05
1.4194936985084984557e-05
1.4178409859868013041e-05
1.4161253406108846288e-05
1.4144917734628390917e-05
1.018377229873053363e-05
1.0170431235278323991e-05
1.0158181136247067407e-05
1.0144797525683842804e-05
1.0132475256845497276e-05
1.0119012185334066897e-05
1.0106584451054489169e-05
1.0093166851168709815e-05
1.0080530635290438007e-05
1.0067153000362874543e-05
1.0054348097212727146e-05
1.0040837457295415761e-05
1.0027884625961826004e-05
1.0014254120460467862e-05
1.0001170286635818564e-05
9.987447138136864406e-06
9.9743531467266270348e-06
1.512739696227725759e-05
1.5098573925066314125e-05
1.5072210484955480059e-05
1.5046910911693494852e-05
1.5023764763731715577e-05
1.5001195415725138591e-05
1.4980709443268685671e-05
1.496102094789182771e-05
1.4943220200478449033e-05
1.4925468580929412434e-05
1.4908454993076642261e-05
1.4890503838538459415e-05
1.4873164883317101129e-05
1.4855126663643336904e-05
1.4838183122308394588e-05
1.4820809311685551244e-05
1.4804248914477902605e-05
1.4787158180849370738e-05
1.4770772433074214855e-05
1.4753655679391168852e-05
1.4737368571365149284e-05
1.4720468500036217017e-05
1.4704199835649452459e-05
1.4687209824535383079e-05
1.4671064093701522958e-05
1.4654226322747698644e-05
1.4638146743294615343e-05
1.04727600260564509e-05
1.0460307180027038809e-05
1.0443088135531026833e-05
1.0430436101526728812e-05
1.0412943884217548788e-05
1.0400129555038160867e-05
1.0382537998142268604e-05
1.0369810815284474497e-05
1.0352228686240434372e-05
1.033952192044394835e-05
1.0321848339663860505e-05
1.0309157912169171237e-05
1.0291316953373816842e-05
1.0278769202474305881e-05
1.0258066704952324661e-05
1.0252771718309492725e-05
1.1853493674072263577e-05
1.1832446094877130692e-05
1.1812153259293098941e-05
1.1793525178820015451e-05
1.1775869665305201806e-05
1.1760239359570049593e-05
1.1745434435125028731e-05
1.1732397951923235821e-05
1.1719606993063822926e-05
1.1708147435170182461e-05
1.1696316287786413804e-05
1.1685069297506102241e-05
1.1673006178083830057e-05
1.1661727897781685583e-05
1.1649957309515331764e-05
1.1638945861182152622e-05
1.1627475475682014127e-05
1.1616440007133462995e-05
1.160488992997480093e-05
1.1594026641613449903e-05
1.1582655435053843654e-05
1.1571937904741537082e-05
1.1560730985835377109e-05
1.1549743295417312557e-05
1.1538188191599546819e-05
1.1527160730700038846e-05
1.1515525545601331482e-05
1.150416650609285615e-05
8.1310988800840647625e-06
8.117406516108730986e-06
8.1074197442256293788e-06
8.0935474470708538289e-06
8.0834172537207041093e-06
8.0693656601870660948e-06
8.0592579677356690341e-06
8.0452314552362975568e-06
8.0351295300219132935e-06
8.0211167820865594103e-06
8.0111174106045609714e-06
7.9970722777997187153e-06
7.9872541669695703729e-06
7.9710611124533703345e-06
7.9692020557201332379e-06
1.1205004147897251184e-05
1.1182192662116319771e-05
1.1161475733735834196e-05
1.1141917149428589621e-05
1.1124596245624568221e-05
1.1108216789490013248e-05
1.1093681125676007902e-05
1.107940714913607135e-05
1.1066351096512350846e-05
1.1053201718992083095e-05
1.104083295008695017e-05
1.1027874970727909998e-05
1.1015583125574608222e-05
1.1002750306524212463e-05
1.0990664598453157735e-05
1.0978168012405546447e-05
1.096623550712924482e-05
1.0953873306717590858e-05
1.0942143477050708344e-05
1.0929885050101677767e-05
1.091831734513758934e-05
1.0906318488908220302e-05
1.0894740908817412853e-05
1.0882557337785709809e-05
1.0870797467931712932e-05
1.0858240702426123764e-05
1.0845905474584362048e-05
7.7302314338723330861e-06
7.7211389544409231355e-06
7.7088625554362692039e-06
7.6997211742654678477e-06
7.6873410353222773578e-06
7.6782203155114212614e-06
7.6659045593211676517e-06
7.6568390256689143147e-06
7.6445673871918411098e-06
7.6356243563524233537e-06
7.6233079073101118046e-06
7.6144606911189745957e-06
7.6006171574544094581e-06
7.5946585189512916692e-06
1.0765591885144433512e-05
1.0745679080578720663e-05
1.0726761794743863961e-05
1.0709921709099233744e-05
1.0693910314282810056e-05
1.0679543595392925717e-05
1.0665329766788757886e-05
1.0652279127565718742e-05
1.0639310771283208153e-05
1.0627325618804687497e-05
1.0614966995490339574e-05
1.0603247260362321191e-05
1.0590910885412050288e-05
1.0579202762383655033e-05
1.0567087589241011146e-05
1.0555537837841532232e-05
1.0543511490580896787e-05
1.0531961448859064246e-05
1.0519796707091858684e-05
1.0508315745905487203e-05
1.0496465223185186765e-05
1.0485068699283899032e-05
1.0472999852282766098e-05
1.0461246196767789806e-05
1.0448595266600485993e-05
1.0436179861026030833e-05
7.4360017110487403936e-06
7.4241956543024472076e-06
7.4154347835020074651e-06
7.4036600710165769077e-06
7.3949202451970187864e-06
7.3831446381316509614e-06
7.3744296593697072033e-06
7.3626866340059337243e-06
7.3540841512618113481e-06
7.3423568192417469676e-06
7.3338941100026573688e-06
7.3210408923285695616e-06
7.3147603485631384069e-06
1.0342014484275443111e-05
1.0323758496679230165e-05
1.03074294660018759e-05
1.0291766619875933301e-05
1.0277611607864056548e-05
1.0263610654186411812e-05
1.0250789565162373164e-05
1.0238108307362176071e-05
1.0226510338304581468e-05
1.0214730789023010913e-05
1.0203662609219432803e-05
1.0192001342169790289e-05
1.0180856199357312636e-05
1.0169241306188828733e-05
1.0158107837154643378e-05
1.0146399764237596503e-05
1.0134996457845656215e-05
1.0122893593058784978e-05
1.0111427980553293503e-05
1.0099682465100273741e-05
1.0088430384349257035e-05
1.0076594379219945075e-05
1.0065052181279751753e-05
1.005270468225007224e-05
1.0040596414225037985e-05
7.1430067092867118999e-06
7.1345089947731863477e-06
7.1232284842234560064e-06
7.1148187714798260143e-06
7.1035001934245439311e-06
7.095052949603505415e-06
7.0837019368889194389e-06
7.0753743213996855965e-06
7.0640803240894831417e-06
7.0559281014301265529e-06
7.0435813417977591005e-06
7.0375922858035742667e-06
9.9395256030033179312e-06
9.9232589305808979708e-06
9.9076873767144959788e-06
9.8936426687906889576e-06
9.8798006961166023735e-06
9.8671317739433472626e-06
9.854622545250365571e-06
9.843267754469694144e-06
9.8318874305690233709e-06
9.8213041243879110431e-06
9.8101927455967634562e-06
9.7995338047161521274e-06
9.7883500064386523966e-06
9.7775900653667034896e-06
9.766201317931932113e-06
9.7550311273814906495e-06
9.7431039520791237654e-06
9.7317837314444925067e-06
9.7202641543410418443e-06
9.7093119955021109043e-06
9.6978237514373612292e-06
9.6866218696624053445e-06
9.674676272992667765e-06
9.6631102070825621405e-06
9.5485515627743886388e-06
9.5338780149802233448e-06
9.5206611217947964895e-06
9.5075769139336368098e-06
9.4955270997474414791e-06
9.4835092949700635988e-06
9.4725564364917793844e-06
9.4616196419546863463e-06
9.4515493650316014022e-06
9.4410550951691715027e-06
9.4309536673373212974e-06
9.4202432994894432471e-06
9.409899552332095748e-06
9.3989681648649903156e-06
9.3883143771154170532e-06
9.3769389051195484836e-06
9.3660787207461944012e-06
9.3549325412990307792e-06
9.3442751181214630407e-06
9.3331186840612075155e-06
9.322297969325553965e-06
9.3108397888318369489e-06
9.2997818639134905696e-06
9.1658876844730632335e-06
9.152607750838736043e-06
9.1402911520990448932e-06
9.1280014626524424873e-06
9.1168749570481119067e-06
9.1059349790041736175e-06
9.0959515537329017632e-06
9.0856516518003412611e-06
9.0757701341330594219e-06
9.065332556158389431e-06
9.0552916738745760345e-06
9.0447452302525080902e-06
9.0345812183068124033e-06
9.0238028553696119169e-06
9.0134790830039825479e-06
9.0027208067900366188e-06
8.9922875789330634477e-06
8.9813670058580424193e-06
8.9708788366319965247e-06
8.9598866933503153349e-06
8.949301410411812012e-06
8.7712882438116583178e-06
8.7607543817117893654e-06
8.7511151537355695199e-06
8.7411737031001602232e-06
8.7316110680660612538e-06
8.7214999222859309919e-06
8.7118116277283129157e-06
8.7017201171289100195e-06
8.6920962181398915255e-06
8.6819157763465706174e-06
8.672100836362289981e-06
8.661742733499998802e-06
8.6516012378249995365e-06
8.6409819006985429151e-06
8.6308122626556469417e-06
8.6202194505222026972e-06
8.6100751562170132629e-06
8.405847533480788187e-06
8.3958185487412445564e-06
8.3862295128055967011e-06
8.3763168033622834323e-06
8.3669605048409016816e-06
8.3571353666167583197e-06
8.3476331403825089223e-06
8.3375137287244232756e-06
8.3275394356252614085e-06
8.3171031681578852605e-06
8.3071126793222346141e-06
8.2967301464640635104e-06
8.2867912587484927954e-06
8.0808761930378059752e-06
8.0716567442698434657e-06
8.0621266003923738229e-06
8.0530972748864005891e-06
8.0436415347551311962e-06
8.0345179845709373918e-06
8.0247972140142835937e-06
8.0151655785606623357e-06
8.0050420695658591367e-06
7.9953058205830795495e-06
7.9851792985643114351e-06
7.9754523106721631333e-06
4.5378692037345702486e-06
4.4962764089844018043e-06
4.4677107515993623658e-06
4.451076472908926311e-06
4.4428014517631626249e-06
4.4392366472987496308e-06
4.4391178371074840311e-06
4.4524965010379056237e-06
4.4908787110186779493e-06
4.5227917855723811168e-06
4.5430091877265009362e-06
4.5519032037628813506e-06
4.5524471521917544653e-06
4.5491560185852674875e-06
4.5426568013845944994e-06
4.5259018835044482448e-06
4.5055021748696156357e-06
4.4933086926222232156e-06
4.4876808890128112243e-06
4.4850994603598685125e-06
6.0467639865431639833e-06
6.0317009267272179827e-06
6.0220390105150027612e-06
6.0149020595182161919e-06
6.0093707637046369071e-06
6.0054143854158399313e-06
6.0025553623342718066e-06
6.0016743346306278143e-06
6.0022406573041647599e-06
6.0038350853370421568e-06
6.0039266998318869319e-06
6.0011164929936426237e-06
5.9966312367219809406e-06
5.9900263449791168197e-06
5.9757199254099372477e-06
5.9357445105058638261e-06
5.8639542195639987349e-06
5.8031023566221211823e-06
5.7587681702898633321e-06
5.7306040146377016503e-06
5.7149978882980534081e-06
5.7070297113910425487e-06
9.8963427737522479039e-06
9.8232841393294583284e-06
9.7644830520588935625e-06
9.7198404117472565332e-06
9.6846509722230875422e-06
9.6564065220585191098e-06
9.634505935934619406e-06
9.6162529302213101015e-06
9.6009588699271061936e-06
9.5874879242268023144e-06
9.5765780915639470903e-06
9.5686338971132929809e-06
9.5604537194662049488e-06
9.5517283126687619054e-06
9.5402393748437994462e-06
9.519130417774142967e-06
9.467033898318335405e-06
9.3559557525858294579e-06
9.2472972185935323251e-06
9.1581758255087912144e-06
9.0918008521850471039e-06
9.0472089055414962769e-06
9.0191625269161802587e-06
9.0009864522606289355e-06
8.9877288763963339939e-06
8.9765301757805055285e-06
2.1146207796393678876e-05
2.1085568702169509448e-05
2.1040278322703143111e-05
2.1004272970239640657e-05
2.0972701903861647426e-05
2.0942675264679676484e-05
2.0915153098226843889e-05
2.0890314661235471187e-05
2.0866472373838537712e-05
2.0841734841805626099e-05
2.0814944826092229336e-05
2.0785328215525269096e-05
2.0753964576658417431e-05
2.0719473003826891356e-05
2.0672854680422620972e-05
2.0587061347567309926e-05
2.0475032508510345212e-05
2.0357666878718030939e-05
2.0245415959932046399e-05
2.0149606982825187418e-05
2.0075783104331059267e-05
2.0025066711085459669e-05
1.9991683967902597807e-05
1.9966856904393530392e-05
1.9943704916607387625e-05
1.9919847696670748942e-05
1.9895540862761321394e-05
1.986916335680064002e-05
5.0437144122299901378e-05
5.0341392420450495869e-05
5.0261906108253206495e-05
5.0192805968101350447e-05
5.0129802544175389807e-05
5.0069771373788497717e-05
5.0010943312646084996e-05
4.9951393824959592249e-05
4.9893469523215667918e-05
4.9836979721962447454e-05
4.9780391458787065148e-05
4.9723095920540354967e-05
4.9663258161780359943e-05
4.9590597242990961595e-05
4.9480738297796007601e-05
4.9346430938710312598e-05
4.9198227364836382271e-05
4.9047097459293077044e-05
4.8905222311483885272e-05
4.8780274599045857719e-05
4.8678311104564273785e-05
4.8601526710643928994e-05
4.8539980568340084671e-05
4.8486818565035798149e-05
4.8430596791151065794e-05
4.8371470932927523227e-05
4.8307312971233615597e-05
4.8243650238434377503e-05
4.8177582476333391016e-05
4.8112565515249926696e-05
8.6170522477474435362e-05
8.6018810281236559342e-05
8.58671143908029921e-05
8.5713069162525083256e-05
8.5556608951974679996e-05
8.5399801537386959486e-05
8.524317233783315574e-05
8.5085859184610450529e-05
8.4925836984645780049e-05
8.4762117364500007971e-05
8.4595445280252149628e-05
8.4429143705650217954e-05
8.426661210219878401e-05
8.4109772461972076769e-05
8.3958552431832102507e-05
8.3812077550781582036e-05
8.3669636255556244925e-05
8.3531487675779855654e-05
8.3397865901611062021e-05
8.3269305529884478584e-05
8.3144835057580838587e-05
8.3022551879243427836e-05
8.2898442091120620192e-05
8.2769787029059917606e-05
8.263501179268885246e-05
8.2495691400158143174e-05
8.2353304870503573633e-05
8.2210914936826212911e-05
8.2068706705972781809e-05
8.1927849612726746801e-05
8.1788679904969588505e-05
8.165166429247316959e-05
0.00011019526322464090722
0.00010999431486666756046
0.00010979228287175909248
0.00010959115465024398775
0.0001093944203368981175
0.00010920493080648258392
0.00010902357474380706102
0.00010884764340248495942
0.00010867247038818946502
0.00010849445258241976456
0.00010831342405595609875
0.0001081322323033466308
0.00010795444986732404674
0.00010778177347894363116
0.00010761253623144165475
0.00010744339287119980021
0.00010727207232212785889
0.00010709878052867050188
0.00010692536430635255146
0.00010675397043125184891
0.00010658484734254963604
0.00010641616816187197915
0.00010624536175042854577
0.00010607179149984176391
0.00010589694782659430077
0.00010572403979299641887
0.00010555534458683122506
0.00010539073106271486008
0.00010522702863138885929
0.00010506172056512521587
0.00010489311748378242755
0.00010472408315623024243
0.00010455469357298901461
0.00014201508583712367886
0.00014128058664133964816
0.00014057275336231978826
0.00013989062683961010249
0.00013923828321678289547
0.00013862149114519692708
0.00012268832694102956233
0.00012247639858952135816
0.00012226227256202266427
0.00012204992977023390425
0.00012184488446669524439
0.00012165174146155750758
0.00012147053183657202939
0.00012129539512193576343
0.00012111773094041931517
0.00012093224043712078844
0.00012073956848648699437
0.00012054574429607787362
0.00012035700543817150578
0.00012017540105613959964
0.00011999721318826338517
0.00011981695198706831097
0.00011963171974628430787
0.00011944340003626255343
0.00011925636148455196579
0.00011907327001280885439
0.00011889297606345296189
0.00011871171164664140528
0.00011852597406729816908
0.00011833583803854124273
0.00011814548948160047621
0.00011795986232938399259
0.00011778146787204278785
0.00011760796182142468436
0.00011743409307451856572
0.00011725537109451410081
0.00011707208269145930458
0.00011688727775656927135
0.00011670669182439521983
0.00011652841073859662409
0.00013415615385034703431
0.00013335029873227558601
0.00013257013416792523671
0.00013182102565133813348
0.0001311130699204464704
0.00013046130584063491873
0.00012987225774565530991
0.00011556029082897343718
0.00011535315559759742009
0.00011516961666761675912
0.00011501620367276956566
0.00011489151981739946029
0.00011478309115340626335
0.00011467198376152086753
0.00011454126927341418086
0.00011438535815481123872
0.00011421278891669027283
0.00011404001443981304611
0.00011387917983257806723
0.00011373064803202571568
0.00011358491882995506213
0.00011343129325916862264
0.00011326649825055310308
0.00011309652096337084748
0.00011293091680777338041
0.00011277459834471845938
0.00011262492332511719417
0.00011247493641898324271
0.00011231973690056134326
0.00011216207207718020366
0.00011201018050222438002
0.0001118721019683781607
0.00011174758836778264865
0.00011162788950876286441
0.00011150080097328793935
0.00011135945077996564406
0.00011120632388016639847
0.00011105041718468928948
0.00011089903489646277756
0.00011075202413578869043
0.00011060252062212163552
0.00011044306040816260247
5.3963858254147418732e-08
5.3978560992780062054e-08
5.4012424001296784623e-08
5.4068085948016409232e-08
5.4087739500022799422e-08
5.4162173770073457117e-08
5.4165306918933915258e-08
5.4224272608600448856e-08
5.4213684503876034627e-08
5.4272915990726298183e-08
5.4270417370602351376e-08
4.277292505574477467e-07
3.9643235630001587386e-07
3.6595572102245517945e-07
3.3668253888793369627e-07
3.0892871997685055298e-07
2.8291665183035240293e-07
2.5879102298176386547e-07
2.3664647472552126587e-07
2.1654223275318132832e-07
1.9850562204540824134e-07
1.8252014821335640606e-07
1.6852417020082530668e-07
1.5643437983560965723e-07
1.4616764623868922782e-07
1.3760955147829818245e-07
1.3059099656167672564e-07
1.248897904845767308e-07
1.2028848258763789478e-07
1.1655314645274063072e-07
1.13481682421247214e-07
1.1089696630950008118e-07
1.0870985674495846835e-07
1.0684497179922337912e-07
1.0528113191182998862e-07
1.0397504421440253183e-07
1.0292123802987349086e-07
1.0202382378455354124e-07
1.0122321007843458915e-07
1.0044362167941261556e-07
9.973179257325492743e-08
9.9122854461211008157e-08
9.8672289289117545324e-08
9.8299465452329693916e-08
9.7902646697931682654e-08
9.7328217592718150017e-08
9.6582477562171473091e-08
5.6979196739223301618e-08
5.696314301006041002e-08
5.6940084176570522111e-08
5.6905092099858482885e-08
5.6863402266849266451e-08
5.6818127189416356883e-08
5.6776122132280318939e-08
5.6740371240159721043e-08
5.6715036635487329136e-08
5.6693345341925347647e-08
5.6687587246736457561e-08
5.6686752350886988696e-08
5.6688268135529728926e-08
5.6701285823217749881e-08
5.6692690560138524421e-08
5.6707811768835120274e-08
5.6683145436943403639e-08
5.669518521883855398e-08
5.6663733036745739755e-08
5.6679987299278784105e-08
5.6667702763802886915e-08
4.5262601532044256369e-07
4.186001403406391515e-07