/*--------------------------------*- C++ -*----------------------------------*\
  =========                 |
  \\      /  F ield         | OpenFOAM: The Open Source CFD Toolbox
   \\    /   O peration     | Website:  https://openfoam.org
    \\  /    A nd           | Version:  12
     \\/     M anipulation  |
\*---------------------------------------------------------------------------*/
FoamFile
{
    format      ascii;
    class       volScalarField;
    location    "0.00518";
    object      p;
}
// * * * * * * * * * * * * * * * * * * * * * * * * * * * * * * * * * * * * * //

dimensions      [1 -1 -2 0 0 0 0];

internalField   nonuniform List<scalar> 
106891
(
98669.645498146608588
98665.206270788316033
98662.436742799109197
98662.307027198563446
98665.334111728036078
98671.702682273171376
98681.154361433524173
98693.095297899373691
98706.531210490356898
98720.133405693602981
98732.802315151799121
98838.395756101439474
98843.541881496537826
98845.021183431788813
98836.268011590844253
98814.80724322948663
98784.732683647365775
98755.371383139907266
98736.494466552219819
98732.732608173799235
98741.221657149784733
98754.184910187672358
98764.00610246375436
98768.121559605977382
98768.690318947381456
98769.128732984521776
98770.191926054452779
98768.778064617203199
98760.298407343463623
98742.417220857227221
98717.424002523926902
98690.963210245288792
98668.956410853803391
98654.644693674388691
98648.08055682759732
98647.226189035151037
98649.44517639237165
98652.29910511559865
98653.656326122145401
98651.531319040514063
98644.638055629227892
98633.725468186239596
98621.735951737122377
98612.088046034361469
98606.063352604222018
98601.253467362286756
98592.98452001165424
98577.963603489624802
98557.046999761922052
98635.770564898397424
98648.837403358702431
98661.550654991966439
98672.490341973913019
98680.443546586640878
98684.736433462763671
98685.302119501575362
98682.650983955114498
98677.673636898689438
98671.525611505829147
98665.460012587500387
98660.704820901679341
98658.303360406600405
98658.990754242928233
98663.179475633427501
98670.930640166261583
98681.928093063950655
98695.486658512527356
98710.360235220432514
98725.351720297068823
98841.049572202115087
98845.205111666247831
98836.341173269451247
98813.377000835884246
98782.105830024112947
98753.063357952414663
98736.134146284384769
98735.446987394199823
98747.189049136533868
98762.126462001135224
98772.287935049840598
98775.312409359379672
98774.194441220010049
98773.441010515831294
98774.643265118313138
98774.9441629803041
98769.244815483063576
98754.125865239504492
98730.539484730179538
98703.515289160757675
98679.063438743920415
98661.326990570814814
98651.570958233642159
98648.619025831838371
98650.141567005848628
98653.628566029772628
98656.29740143372328
98654.799009362599463
98646.349109052025597
98630.863646858881111
98611.672387562997756
98593.795213473495096
98580.614836790206027
98571.52513656753581
98562.606970900000306
98550.005910104708164
98655.092156778060598
98665.896070298113045
98675.788205264791031
98683.692323756986298
98688.846523038620944
98690.857397963205585
98689.836173587958911
98686.254751764427056
98680.878793161522481
98674.569653011931223
98668.243822580698179
98662.816680728035863
98659.17524942275486
98658.06662885073456
98660.10737279181194
98665.610112043403205
98674.595843489703839
98686.702243477702723
98700.916039568794076
98716.183735369311762
98834.375493041123264
98838.284827343857614
98828.392386805135175
98805.495618355023907
98776.086233717622235
98750.064309740017052
98736.093687648215564
98737.009840223006904
98748.890564251632895
98762.751147444476373
98771.388947469022241
98772.948048474368989
98770.505399427711382
98768.782971105072647
98769.831228365510469
98771.511948373765335
98768.938011064907187
98757.909064723586198
98738.010788577070343
98712.916062902324484
98688.090763796120882
98668.220346915666596
98655.493045810784679
98649.741655562698725
98649.395156952683465
98651.995417281199479
98654.229592316172784
98651.997963639398222
98641.60827367939055
98621.955273274550564
98596.057395509429625
98570.016630737532978
98549.681111661775503
98537.420085549980286
98531.083754123843391
98525.84342086588731
98682.942596932029119
98689.549036412892747
98693.969246618420584
98695.988049763953313
98695.798785070001031
98693.821503364626551
98690.526185603215708
98686.357488932568231
98681.627008776660659
98676.702222994732438
98672.014373704922036
98668.200889005078352
98665.993123220352572
98666.189711149243522
98669.330900791479507
98675.677907334043994
98685.116431489179377
98696.902155492862221
98710.283265965888859
98824.416360825052834
98812.11282898922218
98790.22752197230875
98765.277510876723682
98744.891757743971539
98734.703794621964335
98736.032380479649873
98744.819089788317797
98754.688145439926302
98760.144002671600902
98759.684011002624175
98755.998147100021015
98753.219688078490435
98753.700321997705032
98756.334542901575333
98757.151490288975765
98751.816293453797698
98738.25068222185655
98717.879847653239267
98694.915886898234021
98674.042975349540939
98658.422028115528519
98649.123524544833344
98645.454242092324421
98645.27248045419401
98645.203267577147926
98641.043300150995492
98628.745011264894856
98606.325341523668612
98575.950577122159302
98544.13971205127018
98519.03373289416777
98506.070643220300553
98504.846344453952042
98691.922070447850274
98696.69110008997086
98699.678554466212518
98700.654032747988822
98699.97790806008561
98698.348526182831847
98696.496503071859479
98694.911739873772603
98693.701722057943698
98692.641452055831905
98691.361004029458854
98689.619655713468092
98687.533340480818879
98685.566137150221039
98684.529171657966799
98685.218180769516039
98688.293499970284756
98693.947345082837273
98701.751361983202514
98711.25210054202762
98803.237719743206981
98787.01603289997729
98765.655250714873546
98745.694440876803128
98731.82017985751736
98726.014684512003441
98727.278925240461831
98732.290070760078379
98737.211054998784675
98738.825188650065684
98736.308429801487364
98731.438187512219884
98727.370207256186404
98726.779252261520014
98730.042520045608399
98734.560689282414387
98735.919762908029952
98730.135738655269961
98716.04448100697482
98696.120732071241946
98674.925857177222497
98656.6937006017979
98643.818214026250644
98636.363349230974563
98632.457619338732911
98628.971499457067694
98622.069085393624846
98607.936709750123555
98584.44462724411278
98553.256626865520957
98520.651846324937651
98495.440026190801291
98484.676605570319225
98704.717731620621635
98703.722243217518553
98701.539141079265391
98698.976139226913801
98697.04809306738025
98696.592153322068043
98697.985284271111595
98700.973428256402258
98704.834428469053819
98708.600501785826054
98711.38121962317382
98712.709365342729143
98712.631014209546265
98711.686042261411785
98710.650366654386744
98710.39996800928202
98711.582482410842204
98714.243462795420783
98718.402049358730437
98752.188055764752789
98730.028050276407157
98712.622204813334974
98703.37684744418948
98701.828175669666962
98704.868762393045472
98708.802677207801025
98710.942805870625307
98709.960700409981655
98705.88266382997972
98700.067332982434891
98694.962404896112275
98693.416912473694538
98697.072047011373797
98704.607573522356688
98711.488841765079997
98712.201963083003648
98703.519635705291876
98686.400173452595482
98665.291505976027111
98645.534518873595516
98630.399689842000953
98620.152571229438763
98613.093325639143586
98606.290111034861184
98596.396113531125593
98580.789847492880654
98558.556323512428207
98531.382281086800504
98504.152337578780134
98484.098989019461442
98477.936559654714074
98708.063879456807626
98703.205297684835386
98698.609283645404503
98695.312860469770385
98694.343008948853821
98696.360277161569684
98701.426966375729535
98708.945489182733581
98717.756090598661103
98726.464676525181858
98733.745078745836508
98738.646750477375463
98740.811655281067942
98740.494437523171655
98738.374547354396782
98735.322097627591575
98732.164508992384071
98729.403607819709578
98727.610956741613336
98683.938776444992982
98666.369416316287243
98658.018417924104142
98658.51242625125451
98664.276987401390215
98670.764706783913425
98674.43468338677485
98674.032943351397989
98670.240237319783773
98664.864106721550343
98660.3406851561449
98659.370681841566693
98663.599926406808663
98672.000678786789649
98680.40227444707125
98683.267287584691076
98676.805182140014949
98661.332005968652084
98641.065206958519411
98621.320558726176387
98605.790327405382413
98594.94209978877916
98586.483567570321611
98577.373866602618364
98565.556080681519234
98550.496652888934477
98532.741459362383466
98513.864792942084023
98496.822282112407265
98485.997833996603731
98701.683682247414254
98695.961705533758504
98693.536014228477143
98695.027194376074476
98700.530838544465951
98709.534732029613224
98720.966110392764676
98733.411669509820058
98745.311066504291375
98755.201057597994804
98761.98826994371484
98765.150626005386584
98764.825606591723044
98761.615949137471034
98756.44630607237923
98750.188597489963286
98743.453347948932787
98736.900533514257404
98611.090835736235022
98600.065415346864029
98599.10581461028778
98605.801342530932743
98615.353053871906013
98623.258260294460342
98627.37687406373152
98627.97713767971436
98626.810829180132714
98626.179982070156257
98627.973417071189033
98632.839262502035126
98639.454746173083549
98644.428638600729755
98643.773280672787223
98635.255660290931701
98619.855310252212803
98601.27195057173958
98583.820282162851072
98569.994505863127415
98559.590393383332412
98550.580542826806777
98541.033237930430914
98530.660923705683672
98520.46081511900411
98511.406752371491166
98504.028825663495809
98498.986030017957091
98704.454246433393564
98699.316855626966571
98699.363760389140225
98704.476216586801456
98713.832053300502594
98726.076335113859386
98739.62306219637685
98752.898673480725847
98764.555803435869166
98773.517164588876767
98779.130768900402472
98781.195086053921841
98779.953419733661576
98775.961475527452421
98769.924128561775433
98762.539502382016508
98754.310605845326791
98745.663808601704659
98539.389929171855329
98534.333519753461587
98538.305566109163919
98547.545024259379716
98558.164019093979732
98567.988666451929021
98576.761465241666883
98584.796465592531604
98592.202543725405121
98598.540480858020601
98603.070351405578549
98604.560343084376655
98601.693166419878253
98593.660507867098204
98580.803544783222605
98564.922199196589645
98548.687431638551061
98534.418233067975962
98522.954907943931175
98513.729731521394569
98505.833067717365338
98499.355355383799179
98495.366275610984303
98494.684749529362307
98497.060993409017101
98501.349932580342283
98506.462115513422759
98715.710354383729282
98718.806351664243266
98726.960596771823475
98738.566288876652834
98751.696571845197468
98764.391908904872253
98774.998630090718507
98782.478889905498363
98786.607899448412354
98787.78585633719922
98786.65398789732717
98783.842909803235671
98779.769657173586893
98774.665734120513662
98768.634445361734834
98761.612200144751114
98753.535461355204461
98502.88370759456302
98486.125504301453475
98476.258108292604447
98473.458698601141805
98476.926120532458299
98485.950864604499657
98499.817968273491715
98516.88337093735754
98534.272698960077832
98548.706138629335328
98557.985787158861058
98561.204699990950758
98558.498891888317303
98550.3101818615105
98537.497173523792299
98521.662367448807345
98505.078454205373419
98490.068908265180653
98478.095725152859814
98469.345847642907756
98463.353800868208054
98460.178289272080292
98460.650648363385699
98465.531004949036287
98474.678543653120869
98486.752084173320327
98499.362650691648014
98755.937802120082779
98764.796376004189369
98775.272874988891999
98785.143456465695635
98792.696623697818723
98796.944103946079849
98797.727505164279137
98795.623046815846465
98791.650673980650026
98786.937077452457743
98782.348081723655923
98778.260638890424161
98774.58152072946541
98770.771888648960157
98766.156031106816954
98760.094298986630747
98475.940470772970002
98460.676925315972767
98448.068067829110078
98438.161960894693038
98433.000120523109217
98435.427567142105545
98446.454883958474966
98463.574081163358642
98481.891832990324474
98496.734561357632629
98505.705909341937513
98508.864388783098548
98507.238677627625293
98501.485537180691608
98491.47554412962927
98477.55952374933986
98461.557508797079208
98446.397425208779168
98434.724064183435985
98427.933191099567921
98426.244351652436308
98429.337568166665733
98436.8787388655619
98448.493703197513241
98463.022723491609213
98477.993135731332586
98490.398409834277118
98498.140211411664495
98809.717491226532729
98814.387707381509244
98817.172148191268207
98817.488592191322823
98815.164917024507304
98810.496811840173905
98804.306324196615606
98797.658235165275983
98791.506628275194089
98786.450537652170169
98782.507006103856838
98779.110617095822818
98775.497218831427745
98770.997940249289968
98765.028641141296248
98455.33742562266707
98442.498194271131069
98428.275880158995278
98416.166064949866268
98410.974406036111759
98414.899283172984724
98425.81979451845109
98438.819624879964977
98449.521276955274516
98456.364350466988981
98460.198501035483787
98461.981037205609027
98461.296994470321806
98456.597950394410873
98446.774774578894721
98432.90424195882224
98418.217020993499318
98406.625096554867923
98401.06802749162307
98402.598488424438983
98410.673869431964704
98423.830310758945416
98439.906815495924093
98455.998923238294083
98468.931171631105826
98476.510487637773622
98478.630085820899694
98848.21065895044012
98844.63015964688384
98838.904002726223553
98831.537966093383147
98823.362852295162156
98815.34052020747913
98808.130805232518469
98801.923739408841357
98796.727833482043934
98792.350328933447599
98788.119513979298063
98783.28209987115406
98777.617478931235382
98770.8921074148966
98450.800101367145544
98434.641483926476212
98417.275675575408968
98404.137688811548287
98398.501025909397868
98399.545426147262333
98403.775395752105396
98408.14555357649806
98412.011102862030384
98416.464228231154266
98422.09681588949752
98427.250814864833956
98428.774499870851287
98424.195883177017095
98413.738322638455429
98400.648739846292301
98389.608483145086211
98384.709778906049905
98388.112212426349288
98399.524101768794935
98416.398832732957089
98434.502798182933475
98449.198500290964148
98457.082060824293876
98457.432841690839268
98452.777719382400392
98868.194186853434076
98857.282731410406996
98846.368977348436601
98836.58738059749885
98828.505952321065706
98822.161149620209471
98817.010937371858745
98812.486769279246801
98807.590851082699373
98801.872894388114219
98795.329537721248926
98788.111974047962576
98780.383949103183113
98450.494041432611994
98430.397334174005664
98411.298594447638607
98396.720376295997994
98387.476837168447673
98382.144476629502606
98379.301009705639444
98379.2272847629647
98383.259807918075239
98391.526179785127169
98401.474473571783165
98408.748808891396038
98409.665352180527407
98403.468650315495324
98392.850174204300856
98382.809292218284099
98378.229208220480359
98382.082778543364839
98394.380421734022093
98411.95959323826537
98429.288384859697544
98440.533261333941482
98442.243081872657058
98435.226225984908524
98424.443186006727046
98873.190464306884678
98860.713212134345667
98850.810766471171519
98843.537958915258059
98838.324133790199994
98834.30312472920923
98830.043713980077882
98824.699623436710681
98818.053429559266078
98810.230738179190666
98801.842708151903935
98793.655091319407802
98448.681668417353649
98426.588491565998993
98406.739734600938391
98390.201626361551462
98376.819240136639564
98366.895552067013341
98361.891498664015671
98363.557392543341848
98372.061165335064288
98384.632048048020806
98396.25274578272365
98402.269259483044152
98400.734687503179885
98393.427432668861002
98384.860352139177849
98380.243462643658859
98383.200745095396996
98394.025537774417899
98409.303772362196469
98422.962138729708386
98429.031396096397657
98424.568000414728886
98411.690465006307932
98396.695787211254355
98446.179194296972128
98424.304970525583485
98404.116244334916701
98385.840582400298445
98370.396105349558638
98360.069545843580272
98357.502101828838931
98363.554492174996994
98375.881476580238086
98389.47386547496717
98398.984739179708413
98401.417429099252331
98397.487574865241186
98390.975912010442698
98386.831742000125814
98388.629651516021113
98396.759480437438469
98407.947783745912602
98416.389105109556112
98416.476541819851263
98406.216892930664471
98388.822891640957096
98371.442913042294094
98425.926357230026042
98405.867875932031893
98386.911884387096507
98371.65891378694505
98363.638505617200281
98364.955646559290471
98374.352124298369745
98387.297769180688192
98398.186058526698616
98403.259536171826767
98402.263617724951473
98398.094883974408731
98394.960010397015139
98395.938693105330458
98401.204548838693881
98407.515902608196484
98409.817566658355645
98403.882258403900778
98389.145860217467998
98369.247957312632934
98350.917201418240438
98379.239540104143089
98374.372508750122506
98378.560991803431534
98388.372388293675613
98398.425317671441007
98404.418246950925095
98405.294128101566457
98403.211954038808472
98401.614268640012597
98402.74564857193036
98405.945583154141787
98407.969781626437907
98404.628370664504473
98393.425007490455755
98375.098959825350903
98354.029313785809791
98336.406364782364108
98399.16859831965121
98404.252163852695958
98405.663064623673563
98405.045793334298651
98405.181734190220595
98407.333688362356042
98409.909554105484858
98409.227800085383933
98401.878034606401343
98386.836643254922819
98366.279664137138752
98345.154258103764732
98328.804830469904118
98402.680788205994759
98403.413478411821416
98403.667520599803538
98405.508088238129858
98409.135084541892866
98412.10460467611847
98410.373403674631845
98401.03422499660519
98384.173650850600097
98363.162388419863419
98343.052776747426833
98328.382664543954888
98562.374363209703006
98590.701906623813557
98609.784040929967887
98615.877235300882603
98613.989976393917459
98612.048179336226895
98614.232862676231889
98620.016375091960072
98626.788234580715653
98632.966719788630144
98639.185629657891695
98645.493141840910539
98649.791450417425949
98649.551199951732997
98643.450688045966672
98633.847564142415649
98624.354814510094002
98617.980204748426331
98616.224212297893246
98619.595542736700736
98514.27783764518972
98544.367107923637377
98578.009830912676989
98601.505118256420246
98609.211325782525819
98606.665479777366272
98604.05010901633068
98608.177241929137381
98618.741875318213715
98630.938443124643527
98640.013496346175089
98645.239205377627513
98648.665495307868696
98651.352365641796496
98652.640749522877741
98650.348604903454543
98643.686663575950661
98634.164754219047609
98624.528609785615117
98618.686234874025104
98620.028567628658493
98629.499210139430943
98495.891729920855141
98482.427061981463339
98494.870538789749844
98528.114916286969674
98566.934264597657602
98594.588484290754423
98603.964158485498047
98600.700572263478534
98597.28906196267053
98602.864312384917866
98617.659176771936473
98634.64120113789977
98646.309056380952825
98650.57676411511784
98651.19040244432108
98652.437425208976492
98655.161504405361484
98656.607834740265389
98652.826705690764356
98643.24516310049512
98630.466457793256268
98620.659972625566297
98620.141127199764014
98631.066241200765944
98648.864993029346806
98665.04295375336369
98521.359252003050642
98482.942267414211528
98465.807555775580113
98477.79460018419195
98513.97825237098732
98557.640790050150827
98589.253419812492211
98600.133010867764824
98596.063520092939143
98591.601519203890348
98598.236142817317159
98616.672520119129331
98637.907212591075222
98651.793911412896705
98655.214404283484328
98653.186390725706588
98653.071509951056214
98657.132999463894521
98662.071939137502341
98661.129791093117092
98651.326390900940169
98635.566440787617466
98622.018207310175058
98619.891449234448373
98632.231743557422305
98653.348191775541636
98672.04823730046337
98680.809644002452842
98565.723759321801481
98514.832898316206411
98472.032198458226048
98451.570006411784561
98463.071843528014142
98502.02195869787829
98550.110227196695632
98585.461267198086716
98597.494875851087272
98592.559064791246783
98586.863766351161757
98594.2788366691384
98615.82796158126439
98640.829591814603191
98656.608591246651486
98659.175081516586943
98654.778190938042826
98653.307350057948497
98658.678256580242305
98666.748226194482413
98668.479876726007205
98658.322051094626659
98639.73289999635017
98622.859778951606131
98619.303321698433137
98633.076571813769988
98657.214786530399579
98678.185140275527374
98686.871046070562443
98685.358808528777445
98611.94848575926153
98563.547498497617198
98509.257229903276311
98462.805214993801201
98439.612556284933817
98450.720038034589379
98492.34850039727462
98544.394485215103487
98583.057982433689176
98596.035718267856282
98590.005714182640077
98583.072181622992503
98590.948997294079163
98615.166633665838162
98643.384809320574277
98660.787718847495853
98662.463398274674546
98655.925181024853373
98653.177558079420123
98659.789949761150638
98670.618096292106202
98674.682048748523812
98664.208377831368125
98642.92612831297447
98623.170079824471031
98618.365039050768246
98633.540070324175758
98660.39141329935228
98683.40241178960423
98691.958436802058714
98688.684346260255552
98685.59825728040596
98610.837322073813993
98562.511957897091634
98505.158618705652771
98454.899610051259515
98429.774784542372799
98440.840148471790599
98484.841921226412524
98540.414382361981552
98581.738303270118195
98595.378944867072278
98588.169756071874872
98580.103082440356957
98588.232163263877737
98614.701316790393321
98645.53797602134
98664.215456112491665
98665.05372897342022
98656.692651816891157
98652.854392174020177
98660.468788025580579
98673.63650839793263
98679.595891236676835
98668.909104551566998
98645.208437963417964
98622.995076018021791
98617.237233204039512
98633.639950991579099
98662.869737743356382
98687.610154325098847
98696.001749206203385
98691.090268539250246
98686.524950720879133
98694.306485293534934
98994.67681890563108
98997.843016612110659
98989.955034273240017
98957.463123301466112
98910.416962320028688
98880.64492769408389
98610.448612657142803
98562.021431340341223
98502.542047950089909
98449.309386429318693
98422.504068719674251
98433.811994667586987
98479.677003533768584
98538.033623871655436
98581.207266120720305
98595.268098942091456
98586.986148682917701
98577.917693863681052
98586.305714034009725
98614.416145991301164
98647.137807229635655
98666.710070092769456
98666.873925186970155
98657.104676300892606
98652.477806168637471
98660.791648442609585
98675.819509040898993
98683.082430384369218
98672.240821437168051
98646.665095053162077
98622.510857652800041
98616.168050681619206
98633.542088412403245
98664.631740504773916
98690.604613772011362
98698.862250955964555
98692.607686742310761
98686.846091502244235
98694.432426607076195
98716.567497264913982
98993.860499658097979
98994.908462527091615
98999.092593394510914
98992.109267988955253
98959.373810112228966
98909.854657675794442
98878.064398545058793
98610.409396130722598
98561.676081440818962
98501.295497230428737
98446.079564270112314
98418.447518704895629
98430.311278419161681
98477.20399934296438
98537.039024533863994
98581.21076955801982
98595.355922136091976
98586.371702163203736
98576.709345639173989
98585.390158771289862
98614.310996469517704
98648.082494912188849
98668.077607376195374
98667.85045603303297
98657.23193980002543
98652.233297320824931
98660.940765988983912
98677.050986718080821
98684.984486176879727
98673.970686503511388
98647.294745597799192
98621.983589187453617
98615.510946983544272
98633.452029051957652
98665.608420471762656
98692.23235228669364
98700.37136186256248
98693.311696626595221
98686.856738152579055
98694.424320171034196
98717.004982651793398
98743.670258230849868
98674.305722069868352
98689.552779623758397
98704.530943432459026
98717.098032999288989
98725.640896132666967
98729.501420665998012
98728.995317811481073
98725.274744290130911
98719.8528354990558
98714.189149485056987
98709.58075749692216
98814.388300028236699
98809.145704500930151
98801.945492534578079
98792.783143582099001
98780.472111377443071
98765.36051986295206
98749.947101482874132
98737.776614234840963
98730.068201476344257
98724.422239796651411
98716.213396431936417
98702.511211082266527
98685.047023038845509
98670.025424812993151
98664.161773348139832
98670.414157085833722
98685.573924008756876
98702.067392836368526
98711.770354758074973
98709.806009844207438
98695.93539628914732
98673.775870966623188
98648.632765496178763
98626.509445083895116
98612.512993450189242
98609.046172307032975
98614.965567985171219
98625.706415779161034
98635.381834555548267
98639.603556581700104
98636.729350622917991
98627.603914555365918
98614.429774134565378
98599.73708190722391
98585.73648164109909
98573.535394640028244
98637.269624418724561
98644.902421861304902
98648.998835654783761
98650.038758526890888
98649.119503745416296
98647.755249272842775
98647.67048028971476
98650.43749280978227
98657.09258312478778
98667.843449924388551
98681.857025363438879
98697.512612743346835
98712.797812167264055
98725.698762497209827
98734.675770952919265
98739.047259582279366
98739.01399678720918
98735.595264940755442
98730.212428073646151
98724.297034630129929
98719.315664228692185
98807.809383796280599
98791.557689489447512
98777.555033351643942
98765.770930583850713
98754.083349503824138
98740.870795655311667
98727.976744734594831
98718.915507040539524
98715.510114306060132
98715.706607297688606
98714.381815024084062
98707.508851622842485
98694.696349535210175
98679.889884862262988
98669.594759424697259
98668.217204100772506
98675.276187724492047
98686.001544429760543
98694.348218084996915
98695.341365387765109
98686.924773012768128
98670.267374932736857
98649.354570114053786
98629.911777904169867
98617.342949126774329
98614.727647971565602
98620.988282704623998
98631.122701928921742
98638.912363562718383
98639.883527499870979
98632.905242629451095
98620.015673499234254
98604.687523099433747
98590.002720994394622
98577.718024054091075
98567.891526534527657
98655.996538770195912
98657.90164655582339
98657.788360649981769
98656.118537282818579
98653.791860631521558
98652.058325356731075
98652.242044664526475
98655.524144042225089
98662.540367397523369
98673.245209530185093
98686.815703637796105
98701.719702392860199
98716.135802961201989
98728.352789005817613
98737.025726606909302
98741.56728347063472
98742.139970259639085
98739.579641849675681
98735.126040110917529
98729.993795445887372
98725.579552168725058
98765.319891604536679
98747.379371364135295
98735.740524473061669
98726.812045193961239
98717.382106815726729
98707.973365025536623
98701.472221706804703
98700.769099347598967
98705.152058867970482
98710.174534809775651
98710.277434848598205
98702.686691585433437
98689.133857961001922
98674.575047358390293
98664.450223146923236
98661.690510702537722
98665.67418194685888
98672.801137300586561
98677.768415435784846
98676.029026213451289
98665.929133554629516
98649.821492656716146
98633.199108064523898
98622.074744727928191
98619.881942950989469
98625.462171022008988
98633.691635165552725
98638.403643213692703
98635.495771949543268
98624.528956392779946
98608.381233045467525
98591.300065177041688
98576.723148196804686
98566.143283036260982
98673.810989078541752
98669.09315964380221
98664.42859576594492
98660.485563962400192
98658.026543822983513
98657.829864784725942
98660.558061330317287
98666.508687420311617
98675.503388344324776
98686.826822285816888
98699.298275985740474
98711.451290409342619
98721.965294197856565
98729.801001322281081
98734.472607287578285
98736.032434950306197
98735.088185696484288
98732.593500796705484
98729.461504822800634
98726.925293992186198
98734.692881903247326
98716.789764857778209
98707.747073491875199
98703.116134081617929
98698.324776339286473
98691.894859306499711
98686.571166246154462
98686.143474889089703
98691.347471857399796
98699.668069984953036
98705.42489123348787
98703.770141322907875
98693.589791162128677
98677.629705835599452
98661.341161791613558
98650.441103778211982
98647.984633666550508
98652.734383909846656
98659.662045073331683
98662.668850255824509
98658.033606056676945
98646.733601514351903
98633.48733808886027
98623.751322453084867
98620.759323100690381
98623.786058583689737
98628.485338821657933
98629.53116155648604
98623.604983828088734
98610.709090097312583
98593.692361676818109
98576.701570850491407
98563.267451825551689
98554.959640580680571
98696.474742328631692
98687.445895774231758
98679.366728260894888
98672.84782988083316
98668.370037100772606
98666.2920675566711
98666.830174394606729
98670.058633085965994
98675.707937321058125
98683.187507262016879
98691.683325160876848
98700.269441005628323
98708.062185714719817
98714.38714700199489
98718.916881725293933
98721.623695072019473
98722.875996697708615
98723.237044826935744
98723.212379260134185
98723.7015904703876
98691.435273287075688
98685.939436088607181
98684.579385672754142
98682.794687941728625
98678.4999093387014
98673.368818470553379
98671.026465411152458
98674.431886453952757
98682.411474303429713
98690.852630552122719
98694.722893310870859
98690.244982202231768
98677.343818988389103
98660.111969796271296
98644.907808185307658
98636.84610323474044
98637.097637221231707
98642.13324668983114
98646.097711516820709
98644.555074354808312
98636.888870371563826
98626.087016877994756
98616.649882394383894
98611.601515135975205
98610.854760474801878
98611.499712938049925
98609.821773630814278
98603.396622510510497
98592.144309666968184
98578.186663648637477
98564.596444677823456
98554.25502905571193
98713.364942719272221
98701.645908376012812
98691.428057630357216
98683.230425850415486
98677.413985259961919
98674.136997525551124
98673.30464250750083
98674.636929978645639
98677.653526684574899
98681.797733250336023
98686.497870786566637
98691.293678859932697
98695.864554043437238