/*--------------------------------*- C++ -*----------------------------------*\
  =========                 |
  \\      /  F ield         | OpenFOAM: The Open Source CFD Toolbox
   \\    /   O peration     | Website:  https://openfoam.org
    \\  /    A nd           | Version:  12
     \\/     M anipulation  |
\*---------------------------------------------------------------------------*/
FoamFile
{
    format      ascii;
    class       volScalarField;
    location    "0.00518";
    object      p_0;
}
// * * * * * * * * * * * * * * * * * * * * * * * * * * * * * * * * * * * * * //

dimensions      [1 -1 -2 0 0 0 0];

internalField   nonuniform List<scalar> 
106891
(
98669.211970856311382
98664.86520552035654
98662.244122689313372
98662.303664590363041
98665.541675203334307
98672.11925807177613
98681.752224971249234
98693.824020147018018
98707.325707546769991
98720.924934884795221
98733.5153677068447
98838.982327158562839
98844.141422910775873
98845.361946791672381
98836.156436858407687
98814.270449911942706
98784.040139914417523
98754.904800180840539
98736.53954006585991
98733.31784655735828
98742.099842924202676
98755.032975280919345
98764.614357921091141
98768.491822705793311
98768.954949087870773
98769.3862269284582
98770.398979068777408
98768.780933091620682
98759.954334979949635
98741.733124786842382
98716.571132313838461
98690.184865219212952
98668.439760396984639
98654.45315603785275
98648.174674628840876
98647.516454050302855
98649.834060615394264
98652.694349278972368
98653.967087073557195
98651.671797862276435
98644.572766812882037
98633.513046797263087
98621.498961931763915
98611.923850655497517
98605.95305032201577
98601.055252377191209
98592.545455255167326
98577.254436569899553
98556.210641786412452
98636.329911098437151
98649.347733766204328
98661.946341771559673
98672.71376908707316
98680.459353207406821
98684.533293012485956
98684.899932283515227
98682.100804276371491
98677.050331381367869
98670.910636971020722
98664.93014670239063
98660.320234319806332
98658.108071646507597
98659.013574801996583
98663.433961429342162
98671.40981519522029
98682.599378191793221
98696.292328935000114
98711.221762134562596
98726.180639463971602
98841.739784229153884
98845.538317195823765
98836.163320694671711
98812.777656700054649
98781.410200020982302
98752.681708940668614
98736.345570550387492
98736.224437401717296
98748.247216184114222
98763.096791965974262
98772.956643803772749
98775.699060856437427
98774.461724998138379
98773.725906815961935
98774.923172686962062
98775.058617903428967
98769.023104210209567
98753.525437971518841
98729.694441218438442
98702.663206768571399
98678.416158838226693
98660.997694774065167
98651.563859542482533
98648.865182981957332
98650.544367040070938
98654.079041643548408
98656.65841601692955
98654.921610185556347
98646.150844899661024
98630.397040484414902
98611.107182485473459
98593.3101779181452
98580.274150416473276
98571.241979267259012
98562.233368035114836
98549.473112802093965
98655.659849468589528
98666.388968057683087
98676.145047897560289
98683.865974945307244
98688.813173131566145
98690.623285349589423
98689.42842465089052
98685.717576886745519
98680.26444395854196
98673.939060775126563
98667.660529151995433
98662.345359635306522
98658.871100698335795
98657.970110848575132
98660.241211213389761
98665.979186658674735
98675.184203426513704
98687.468260720546823
98701.786529585850076
98717.065874476524186
98835.036200611953973
98838.533003287928295
98828.161190672646626
98804.923955110469251
98775.495459127530921
98749.818637697142549
98736.408782950442401
98737.850054485708824
98749.967483378626639
98763.71636262825632
98772.053699563650298
98773.338056332577253
98770.785460888771922
98769.095969964735559
98770.177197272641934
98771.74958468915429
98768.885670023359125
98757.481292959186248
98737.28987108747242
98712.102294214157155
98687.400288955934229
98667.797808520903345
98655.379568356976961
98649.902908877425944
98649.749353108883952
98652.421502056648023
98654.564496610881179
98652.062959941278677
98641.283000066978275
98621.265390296583064
98595.190248979444732
98569.227725654956885
98549.152420755839557
98537.172409732156666
98530.984569660882698
98525.725998660855112
98683.380851163470652
98689.840914864893421
98694.094483415945433
98695.946787281922298
98695.611351663814276
98693.521546267569647
98690.150080312567297
98685.937083337179502
98681.188721855534823
98676.273810872939066
98671.633973696618341
98667.916905692836735
98665.856735447858227
98666.242879186480423
98669.597927998387604
98676.15918807615526
98685.783159672791953
98697.69763150124345
98711.123960312601412
98824.485837540778448
98811.808726585310069
98789.738636814392521
98764.873152635671431
98744.819173601921648
98735.087810531971627
98736.800557987546199
98745.747425513560302
98755.519344410393387
98760.730878962131101
98760.046444234511
98756.276653373744921
98753.545234109260491
98754.098872013550135
98756.703990812136908
98757.328241899769637
98751.680135982198408
98737.799724149313988
98717.240142235998064
98694.276688949612435
98673.565769735112553
98658.192432569383527
98649.149842455168255
98645.68079455307452
98645.585805070775677
98645.442464495805325
98641.02692842396209
98628.332155640906421
98605.505061029049102
98574.899557484692195
98543.171875215106411
98518.449946709268261
98505.99148012547812
98505.152033219710574
98692.389571661959053
98697.0281151792733
98699.870206355932169
98700.714562136563472
98699.943625135259936
98698.261738188652089
98696.393032405088888
98694.811044989619404
98693.606736035682843
98692.540912876313087
98691.242268906265963
98689.484927789788344
98687.404065742579405
98685.481681007338921
98684.542367691945401
98685.376817408890929
98688.623067979817279
98694.440756190248067
98702.371710592517047
98711.938094639685005
98803.052677560932352
98786.578746301311185
98765.225874842202757
98745.476769468645216
98731.923877576628001
98726.440789572006906
98727.925114455836592
98733.007452443285729
98737.854013134987326
98739.301919424760854
98736.630877873874852
98731.700138792817597
98727.687079006398562
98727.215573326291633
98730.558301091150497
98735.019836946870782
98736.157169908023207
98730.049466517957626
98715.664197512509418
98695.592482063962962
98674.428354796051281
98656.361018291921937
98643.703509424740332
98636.433529310525046
98632.614679449849064
98629.075115022613318
98621.958400686038658
98607.478704573310097
98583.618690518371295
98552.224651598429773
98519.734584593141335
98494.981008230170119
98484.858004974201322
98704.95901113646687
98703.849042168149026
98701.595481218129862
98699.02277168193541
98697.143384407798294
98696.773452059511328
98698.255659516071319
98701.305054293843568
98705.176445147662889
98708.89993990540097
98711.596962672876543
98712.829248062989791
98712.672611663423595
98711.693247251532739
98710.678166157857049
98710.499588108315947
98711.782851343697985
98714.544807747151935
98718.776450500503415
98751.568055487194215
98729.544795576861361
98712.47169316597865
98703.594829934416339
98702.321265491453232
98705.482288055296522
98709.405204468348529
98711.452620005380595
98710.345169617037755
98706.161512502483674
98700.307828865479678
98695.268289327781531
98693.884628822270315
98697.719518106780015
98705.322638679514057
98712.063947229224141
98712.452287228312343
98703.39232429904223
98686.0001861640485
98664.81768025434576
98645.163426278857514
98630.203113044291968
98620.107069821940968
98613.114859984169016
98606.257283381230081
98596.189569064241368
98580.339443940625642
98557.876119712440413
98530.605190849761129
98503.527791678265203
98483.921213435693062
98478.395156638260232
98708.247661608227645
98703.353782391612185
98698.781141416213359
98695.574139624324744
98694.748536230486934
98696.934804695119965
98702.156816971270018
98709.775877673528157
98718.607038343136082
98727.248836352024227
98734.385716003613197
98739.096781010448467
98741.064628862106474
98740.580315300219809
98738.345391030714381
98735.237177426723065
98732.077450475509977
98729.352649193315301
98727.611731054857955
98683.332416283563362
98666.137535787405795
98658.218836769272457
98659.04722246604797
98664.966921340528643
98671.43052258293028
98674.969229654772789
98674.419806544246967
98670.525767262879526
98665.129251349673723
98660.689756988169393
98659.898997800512007
98664.329396957953577
98672.830090658855624
98681.128798198697041
98683.687990515260026
98676.834085466703982
98661.051676515155123
98640.665051338786725
98620.984093546037911
98605.60661788766447
98594.878231107184547
98586.43505997947068
98577.246498307300499
98565.311541384129669
98550.150342379522044
98532.343593929384951
98513.507759342464851
98496.651891911271377
98486.190302954491926
98701.927777901611989
98696.357316305118729
98694.131901316519361
98695.847900851862505
98701.568458799301879
98710.743862733419519
98722.270804768195376
98734.716078626661329
98746.511755602594349
98756.205155688992818
98762.733785668577184
98765.61791171040386
98765.037000446056481
98761.625074759314884
98756.317687601942453
98749.980898865280324
98743.215416789869778
98736.668921423377469
98610.671506928090821
98600.100380081450567
98599.570224068840616
98606.531428254413186
98616.139170741167618
98623.950563601174508
98627.929756619181717
98628.427004310869961
98627.240638032511924
98626.678142647026107
98628.596400255177286
98633.57941677654162
98640.219279031138285
98645.057883603760274
98644.12688057863852
98635.293053069370217
98619.659806937357644
98600.999283003184246
98583.607066375305294
98569.886488140909933
98559.544504665274872
98550.520190754468786
98540.92479068110697
98530.541860899771564
98520.391463050706079
98511.428588438546285
98504.165838582048309
98499.275311117860838
98704.848197985076695
98699.999086300769704
98700.345234151056502
98705.727704688237282
98715.289167948794784
98727.651156104941037
98741.219521682156483
98754.42141671643185
98765.918276433381834
98774.652327695584972
98779.998457427194808
98781.788367231885786
98780.294377323123626
98776.092981374167721
98769.899146451192792
98762.410905773474951
98754.116610137061798
98745.429649807410897
98539.176157041176339
98534.585601756945834
98538.910735440411372
98548.324340127495816
98558.97828098089667
98568.780691468418809
98577.533859516639495
98585.560530832997756
98592.949006865805131
98599.246238864638144
98603.696092214697273
98605.049118973562145
98602.001578973591677
98593.772120975583675
98580.750175035078428
98564.781279282731703
98548.54941006572335
98534.340284861071268
98522.93974459747551
98513.747960644061095
98505.874672841993743
98499.46003775812278
98495.589155296911485
98495.05126817211567
98497.550635357853025
98501.919745802180842
98507.074623171371059
98716.657071478693979
98720.086979220010107
98728.492118770052912
98740.236952254796051
98753.382179501029896
98765.97465731902048
98776.389506895255181
98783.63271079371043
98787.524171648110496
98788.492898663171218
98787.191205553026521
98784.244833039148943
98780.060485934387543
98774.862775801637326
98768.745714455842972
98761.640462121984456
98753.482340839953395
98502.07587350627
98485.653740679554176
98476.160546299623093
98473.701203026488656
98477.457357215607772
98486.730477897406672
98500.795345157894189
98517.963554136076709
98535.325206236200756
98549.61642012084485
98558.686487892598961
98561.676923767736298
98558.757748443866149
98550.376998803592869
98537.417743355748826
98521.508265400523669
98504.933613420304027
98490.001268561580218
98478.131476944428869
98469.474304587289225
98463.566626575760893
98460.500625850385404
98461.121238177831401
98466.168032487868913
98475.460147396966931
98487.612202644799254
98500.196153661701828
98757.289793660122086
98766.314703830343205
98776.811140478472225
98786.571784847357776
98793.920621780955116
98797.917635855774279
98798.456969372637104
98796.156768229717272
98792.059995086485287
98787.292626866619685
98782.699909489034326
98778.629187895494397
98774.9562891862588
98771.117141747134156
98766.430053691510693
98760.264203900878783
98475.08630358389928
98460.043759210195276
98447.62918349125539
98437.94530183027382
98433.094768969574943
98435.907742227878771
98447.285478815523675
98464.598886326872162
98482.908116014092229
98497.593017656516167
98506.354028759815264
98509.319250926724635
98507.533974651232711
98501.629411344067194
98491.464937468132121
98477.432238227876951
98461.406565927856718
98446.333487280775444
98434.825534410963883
98428.228574765700614
98426.726744118568604
98429.986563517173636
98437.677049090591026
98449.413701664845576
98463.995947939765756
98478.910627733945148
98491.156673328470788
98498.688065144451684
98810.829914189700503
98815.416403013383388
98818.04687398270471
98818.175576716414071
98815.655449082769337
98810.821585572499316
98804.528977095760638
98797.853600380258285
98791.73950821364997
98786.756440823257435
98782.879014764606836
98779.512790212509572
98775.883816421803203
98771.324772051899345
98765.266026367855375
98454.669187743886141
98441.853577833608142
98427.708375343296211
98415.844084548589308
98411.038380094702006
98415.349689899405348
98426.508542102805222
98439.554265230457531
98450.177860553711071
98456.926339624318643
98460.700731724267825
98462.419360400308506
98461.630558365388424
98456.75964832342288
98446.759574480020092
98432.799589512695093
98418.169346753304126
98406.774408933750237
98401.491407866211375
98403.295535876532085
98411.591311974305427
98424.885243521785014
98440.991219889008789
98456.986666313940077
98469.713913278566906
98477.045188355361461
98478.960101116172154
98848.740113603649661
98845.01301258613239
98839.137126998131862
98831.654315470645088
98823.415239226029371
98815.389886696211761
98808.220141474797856
98802.081581521211774
98796.968739087766153
98792.662829653505469
98788.460013260671985
98783.613062584627187
98777.915145170802134
98771.138517730185413
98450.065235636255238
98433.835368628395372
98416.579850920825265
98403.7371946725616
98398.448488462148816
98399.756941614323296
98404.12062033553957
98408.548665985494154
98412.478648635369609
98417.021247683776892
98422.712253435980529
98427.80698181646585
98429.152965280285571
98424.34609485049441
98413.732063564209966
98400.651324205609853
98389.798378863997641
98385.210646905165049
98388.95323730216478
98400.634022106940392
98417.62274499378691
98435.644056233999436
98450.084930303288274
98457.628674394756672
98457.68281691588345
98452.8864215395879
98868.121644053579075
98857.152886683892575
98846.241063561523333
98836.507045982201817
98828.491279826237587
98822.240411475868314
98817.169822842857684
98812.697179282215075
98807.821154124030727
98802.113539095094893
98795.567404955043457
98788.345647872265545
98780.62309948640177
98449.583904898434412
98429.474974842596566
98410.529596719148685
98396.206514698205865
98387.220651562980493
98382.094187115770183
98379.436711970469332
98379.575718950582086
98383.841871825236012
98392.275919272069586
98402.235275537736015
98409.346249139649444
98410.008465466395137
98403.595391734823352
98392.921935501581174
98383.02890489991114
98378.754977775606676
98382.969738530475297
98395.553327391680796
98413.221377692665556
98430.385582271133899
98441.2590520864469
98442.5374777357938
98435.211183201376116
98424.37330386643589
98872.812692275620066
98860.437686002318515
98850.674304834552458
98843.547648377731093
98838.437562207749579
98834.481673573623993
98830.238084179378347
98824.881129261033493
98818.206805970170535
98810.37582044476585
98802.012215897659189
98793.892843507725047
98447.692046088559437
98425.662557995092357
98405.973900971468538
98389.626039081485942
98376.451194663226488
98366.779029546523816
98362.089360467391089
98364.096884512575343
98372.874902856521658
98385.545001726044575
98397.053987693769159
98402.815489232816617
98401.024963845440652
98393.591988511543605
98385.101658191095339
98380.744067904204712
98384.039746214824845
98395.128195782497642
98410.459264000106486
98423.901615584662068
98429.553663213257096
98424.646628170958138
98411.49993398229708
98396.519120921453577
98445.266088215270429
98423.475551734984037
98403.402906979026739
98385.284625823842362
98370.072577600294608
98360.081906054329011
98357.915483103002771
98364.32385817571776
98376.839394769165665
98390.394583557877922
98399.689507328846958
98401.857608507722034
98397.756637845450314
98391.257297766002011
98387.30414771856158
98389.376040231800289
98397.715583348632208
98408.915187807418988
98417.111364209355088
98416.774603089026641
98406.102347060412285
98388.510511618442251
98371.234344936718117
98425.237302166060545
98405.249102162342751
98386.445422272809083
98371.478981926018605
98363.859551046451088
98365.583445791635313
98375.250185989221791
98388.244037693701102
98398.979828492258093
98403.814763151851366
98402.636160800990183
98398.433980499699828
98395.419680147708277
98396.589128752311808
98401.983736449285061
98408.244454530999064
98410.286702681216411
98403.975981359399157
98388.912119704385987
98368.891127675509779
98350.712888487396413
98379.23718875720806
98374.778108629761846
98379.298263539778418
98389.24638594375574
98399.225340359858819
98405.031206413463224
98405.742782996749156
98403.616923407331342
98402.095097884652205
98403.340964105926105
98406.575487682493986
98408.477730938771856
98404.866062319197226
98393.342796257988084
98374.785948846430983
98353.694944479604601
98336.276969566664775
98399.888741847957135
98404.853579430637183
98406.146587301933323
98405.507849597008317
98405.711840916963411
98407.927011822219356
98410.459222431425587
98409.583283913816558
98401.946199295707629
98386.62955211669032
98365.93661361031991
98344.873252626450267
98328.763297082245117
98403.205129034744459
98403.896206064295257
98404.178341602630098
98406.099115271630581
98409.761040040408261
98412.631916293932591
98410.656607264041668
98401.015648111104383
98383.922401345538674
98362.845736034738366
98342.852138164569624
98328.432564102928154
98563.801641683327034
98592.011551897521713
98610.702639196562814
98616.450539378769463
98614.467711718418286
98612.647887841332704
98614.992424451891566
98620.865581035177456
98627.633426124113612
98633.806880437943619
98640.036309372386313
98646.314126204990316
98650.476323645576485
98650.01027416389843
98643.699682063350338
98634.006084693173761
98624.54162990488112
98618.281486269159359
98616.676822891808115
98620.204536477685906
98515.476759652025066
98545.987987097047153
98579.538146385166328
98602.589730669744313
98609.855411233118502
98607.171856544562615
98604.727574833552353
98609.120371650991729
98619.839183898482588
98632.000144727295265
98640.933412609898369
98646.059581362060271
98649.444457388177398
98652.079095084496657
98653.253281017576228
98650.769159782139468
98643.938810814157478
98634.321908221943886
98624.714982279227115
98619.04225462328759
98620.648620125270099
98630.3445076339558
98495.322903649328509
98482.774127018506988
98496.132356271307799
98529.920900233715656
98568.674231535551371
98595.827612025939743
98604.673957127539325
98601.230333544648602
98598.025185337013681
98603.964920942889876
98618.973114974185592
98635.886355983398971
98647.302997922655777
98651.36225498841668
98651.927528542219079
98653.204022032179637
98655.917843427465414
98657.196071004829719
98653.163329538932885
98643.370627289928962
98630.53707457096607
98620.921706108827493
98620.767405005215551
98632.023451125991414
98649.90258428438392
98665.892803632072173
98520.019458501585177
98482.215535377967171
98466.069974417507183
98479.109178635801072
98515.947493616185966
98559.579483638721285
98590.632359225637629
98600.902334723185049
98596.597319975975552
98592.379737143710372
98599.463061039350578
98618.177325694836327
98639.31305061999592
98652.853004577627871
98655.965468167793006
98653.877418583579129
98653.87663304261514
98658.016200567581109
98662.821403135356377
98661.54547520269989
98651.411497726527159
98635.522867922190926
98622.192031659200438
98620.525658459606348
98633.293879259916139
98654.508422794766375
98672.948799778183457
98681.329744144328288
98564.094448456293321
98513.360645328197279
98471.156732945484691
98451.753143315567286
98464.432184844146832
98504.13728985763737
98552.230570230181911
98586.961728766473243
98598.306211560178781
98593.090037762274733
98587.666391172751901
98595.616847535144188
98617.498495291918516
98642.375838738167658
98657.716234129053191
98659.893087683361955
98655.42366978598875
98654.144818353044684
98659.670049336011289
98667.641822632926051
98668.962463729636511
98658.3597461561003
98639.585072587040486
98622.951952480943874
98619.951389923371607
98634.231974693160737
98658.485331853560638
98679.122939190914622
98687.351098841099883
98685.619477650121553
98610.501007469050819
98561.827500150902779
98507.652776938310126
98461.806808739973349
98439.730736258687102
98452.121124818673707
98494.59767557271698
98546.668932145432336
98584.670350308748311
98596.874410854914458
98590.525620123153203
98583.890135824112804
98592.375699022581102
98616.976560923663783
98645.051669566120836
98661.929436139194877
98663.145478444988839
98656.524848322733305
98654.031984835033654
98660.886797967163147
98671.631463151308708
98675.222679777667508
98664.197691821755143
98642.682848991273204
98623.191233150224434
98619.027400103819673
98634.780559489794541
98661.756447102423408
98684.37800578335009
98692.396919434919255
98688.873009984527016
98685.983318530692486
98609.435422826180002
98560.736318689450854
98503.397339801958879
98453.802864046112518
98429.852530647287495
98442.281006674835226
98487.211734430879005
98542.814521427528234
98583.435958683097851
98596.227267409311025
98588.670216956583317
98580.926418302085949
98589.726612760990974
98616.624928541263216
98647.296147105211276
98665.383539718473912
98665.700705398092396
98657.251684801871306
98653.722466544117196
98661.649277871532831
98674.7427543165104
98680.187286898100865
98668.854674506190349
98644.879269532015314
98622.958793800178682
98617.909489732424845
98634.96048624147079
98664.316296501507168
98688.616065654874546
98696.399179872110835
98691.216298005354474
98686.868639514039387
98695.123981337266741
98994.353808276035124
98997.40778892293747
98988.950215956589091
98955.701936069162912
98908.708044861734379
98880.076246138065471
98609.065647020819597
98560.205995792697649
98500.671912630088627
98448.116226555386675
98422.55485505159595
98435.288047867070418
98482.14024885231629
98540.527600164772593
98582.960152449901216
98596.121487910015276
98587.459355792831047
98578.741629282783833
98587.849356100574369
98616.420683930977248
98648.95863724402443
98667.89602722642303
98667.490988642981392
98657.632617731112987
98653.351107778245932
98662.033013351043337
98676.998450738072279
98683.706266800654703
98672.153728136137943
98646.264295731976745
98622.433329943713034
98616.851689098490169
98634.923892585997237
98666.140773721344885
98691.632155820829212
98699.226957346138079
98692.680194031694555
98687.161054922966287
98695.258317327301484
98717.714093250513542
98993.515257700433722
98994.603510753921
98998.708116849826183
98991.1089615309902
98957.570013924749219
98908.042212703629048
98877.456606334104436
98609.022088248268119
98559.84059153641283
98499.371384689089609
98444.814269751543179
98418.499299409901141
98431.817343231159612
98479.710446670142119
98539.587325615662849
98582.990416007407475
98596.209769262510235
98586.823142918961821
98577.536290578675107
98586.959163056482794
98616.358204305637628
98649.937840920320014
98669.270993252648623
98668.447152358741732
98657.744000228878576
98653.11163738038158
98662.217648973426549
98678.272214948287001
98685.6183245483262
98673.866209886677098
98646.847545544165769
98621.886309244218864
98616.203966842047521
98634.866587323995191
98667.153525641653687
98693.26919446408283
98700.718259984496399
98693.349731027716189
98687.159151519401348
98695.255918755370658
98718.174808598894742
98744.698394921564613
98675.397008851359715
98690.616346627852181
98705.444074078870472
98717.774775999525446
98726.048247451195493
98729.658471284943516
98728.962934016832151
98725.13751133561891
98719.700513410149142
98714.097840136135346
98709.593566593248397
98814.728125864770846
98809.383060804597335
98802.113254435447743
98792.840595307512558
98780.391574913417571
98765.181184524451965
98749.785223757193307
98737.726269663500716
98730.110112087058951
98724.426386851497227
98716.037810167385032
98702.14803975445102
98684.668951397630735
98669.895799152742256
98664.470534659878467
98671.138246585760498
98686.485454913723515
98702.83907135813206
98712.148721056451905
98709.705348376010079
98695.452648972219322
98673.10872440035746
98648.015195486936136
98626.164945384327439
98612.580142894003075
98609.530929168569855
98615.729448773287004
98626.514809719039476
98636.018434460987919
98639.953352698852541
98636.788832055986859
98627.444494311770541
98614.146750684623839
98599.416815818185569
98585.432033026037971
98573.244211773373536
98637.624062794769998
98645.099067367889802
98649.062990336082294
98650.027035265302402
98649.11481639520207
98647.852437482695677
98647.958659221883863
98650.969716326522757
98657.873437917092815
98668.823742080916418
98682.941649739193963
98698.582543093551067
98713.73164135668776
98726.401495720492676
98735.104725393030094
98739.216743480297737
98738.982783343453775
98735.444531553934212
98730.028209096082719
98724.157778088643681
98719.277368309994927
98807.556944074633066
98791.342177905331482
98777.46329527173657
98765.753846035921015
98754.05430209673068
98740.814857993769692
98728.008943919514422
98719.122891039005481
98715.889375374055817
98716.105236930990941
98714.613176597413258
98707.489465836886666
98694.496217805208289
98679.72158350533573
98669.684347562579205
98668.642023009582772
98675.927991625649156
98686.665301257773535
98694.815556029119762
98695.487327938870294
98686.749985167305567
98669.887488563195802
98648.973533578973729
98629.750555063088541
98617.560709277080605
98615.346548036817694
98621.857363391944091
98631.988742161120172
98639.546417637408013
98640.173125308036106
98632.881536428321851
98619.805449903098634
98604.430209835976711
98589.792556218963
98577.580336083978182
98567.785523757600458
98656.051484472627635
98657.843816910550231
98657.663683974329615
98655.984687820076942
98653.717768937509391
98652.112579329070286
98652.485581495871884
98655.9910794122261
98663.226204146776581
98674.102530998337897
98687.759250032089767
98702.644456516456557
98716.943294425189379
98728.962925328087294
98737.396664548403351
98741.704312674963148
98742.087074205366662
98739.406909816112602
98734.910836878727423
98729.807411367364693
98725.480284814955667
98764.773637771941139
98747.140228943608236
98735.744669638021151
98726.908195058538695
98717.511535351062776
98708.186915193000459
98701.878051670079003
98701.398682375802309
98705.888528356561437
98710.802053242805414
98710.61300180121907
98702.704366277801455
98688.966789949394297
98674.440387211798225
98664.527566888544243
98662.037760485662147
98666.224665237998124
98673.390093084657565
98678.204691192120663
98676.194674978527473
98665.845552229919122
98649.655718923386303
98633.186987468565349
98622.400973551149946
98620.570956383337034
98626.353835521047586
98634.526872511414695
98638.959827091151965
98635.682568707445171
98624.409616958917468
98608.118865085110883
98591.062026625979342
98576.609159505722346
98566.164167956827441
98673.593074478107155
98668.857222337726853
98664.231842063687509
98660.382727652584435
98658.065574747335631
98658.041551024449291
98660.952675591222942
98667.067475676449249
98676.181520518424804
98687.558120565634454
98700.00368360056018
98712.05733592438628
98722.417770290267072
98730.07082762439677
98734.560990660917014
98735.969619844516274
98734.923678948558518
98732.385016477084719
98729.267212238337379
98726.795166460855398
98734.016419470965047
98716.547934353613527
98707.856764553551329
98703.384863279628917
98698.617223233915865
98692.220589992342866
98687.055248066753848
98686.863361246287241
98692.253023505065357
98700.577208726899698
98706.096100948227104
98704.068719527494977
98693.541671426937683
98677.403068305487977
98661.17873925245658
98650.543194954982027
98648.408937983374926
98653.365370248051477
98660.278369126899634
98663.074364558677189
98658.181415968734655
98646.753184426153894
98633.589186415207223
98624.102090936430614
98621.38830677777878
98624.562710680445889
98629.187453727048705
98629.971029254156747
98623.717800030601211
98610.565121232968522
98593.450183037886745
98576.530583281462896
98563.274267814646009
98555.155958463161369
98696.181836787494831
98687.15813510834414
98679.135540415198193
98672.713585559060448
98668.360408726177411
98666.421646209535538
98667.100266324108816
98670.451300199929392
98676.185671187166008
98683.701084709115094
98692.180871454547741
98700.70335529386648
98708.398885813396191
98714.609392066806322
98719.025883240741678
98721.638198079177528
98722.825109572848305
98723.154155994576286
98723.13293129230442
98723.661780772716156
98691.3103715069592
98686.145290790547733
98684.93799731771287
98683.161940494901501
98678.858351818402298
98673.818397303853999
98671.69388830641401
98675.340507294196868
98683.429309430342983
98691.776964582662913
98695.346665677745477
98690.471529844522593
98677.24973796827544
98659.919763076715753
98644.868005403041025
98637.105595616303617
98637.621954040412675
98642.735053456955939
98646.573622509400593
98644.813870150392177
98636.989288536671665
98626.188106407120358
98616.901995821346645
98612.050544033976621
98611.419610662967898
98612.026634272289812
98610.176880576138501
98603.53025476053881
98592.111107676668325
98578.107857573966612
98564.599266271849046
98554.431795428739861
98713.032316987999366
98701.337142733231303
98691.185748521369533
98683.083383179138764
98677.378178595099598
98674.213870739084086
98673.480478252153262
98674.887424277985701
98677.947699054886471
98682.104810388191254
98686.794412893272238
98691.56639802371501
98696.109860061129439
98700.285467501991661