/*--------------------------------*- C++ -*----------------------------------*\
  =========                 |
  \\      /  F ield         | OpenFOAM: The Open Source CFD Toolbox
   \\    /   O peration     | Website:  https://openfoam.org
    \\  /    A nd           | Version:  12
     \\/     M anipulation  |
\*---------------------------------------------------------------------------*/
FoamFile
{
    format      ascii;
    class       volScalarField;
    location    "0.00518";
    object      pMean;
}
// * * * * * * * * * * * * * * * * * * * * * * * * * * * * * * * * * * * * * //

dimensions      [1 -1 -2 0 0 0 0];

internalField   nonuniform List<scalar> 
106891
(
98708.014489437031443
98708.726643974820036
98709.475615908755572
98710.261361084820237
98711.08372306561796
98711.942409443377983
98712.83685867980239
98713.767278368366533
98714.731697535127751
98715.730290250226972
98716.752037492798991
98689.722438411175972
98689.708686404424952
98689.690348533287761
98689.670883316226536
98689.656168341010925
98689.651529152324656
98689.658862491807668
98689.675070388926542
98689.693064515042352
98689.705243517935742
98689.707381577274646
98689.699994596565375
98689.686262537288712
98689.668967385907308
98689.649175922866561
98689.626598668270162
98689.601437076256843
98689.57594653806882
98689.554408978961874
98689.541096160202869
98689.538176228757948
98689.544536448855069
98689.556592390217702
98689.570155283014174
98689.581903809739742
98689.58969086423167
98689.592426406030427
98689.590016253467184
98689.583488876189222
98689.574742098804563
98689.566174171850435
98689.559603793080896
98689.555072526578442
98689.551008291658945
98689.545807057482307
98689.53946653343155
98689.534075937466696
98689.5325499518367
98706.55721304815961
98707.04100167521392
98707.548611188976793
98708.081370598782087
98708.640904553933069
98709.229054038252798
98709.847751067529316
98710.498834403464571
98711.183767249647644
98711.903618291020393
98712.65899098519003
98713.45023099546961
98714.277281445742119
98715.139970558608184
98716.037955659179715
98716.970485167970764
98717.937423413502984
98718.936403022904415
98719.96718224119104
98721.01918095505971
98689.688176930183545
98689.676921594320447
98689.664883992707473
98689.658757505210815
98689.66400062367029
98689.681951895705424
98689.708450188307324
98689.735199176269816
98689.75426305050496
98689.761747606360586
98689.758920072490582
98689.749644249575795
98689.737014857775648
98689.721991173762945
98689.703936021876871
98689.682384545652894
98689.659073656774126
98689.638166454693419
98689.62436457053991
98689.620623220587731
98689.626606709454791
98689.639303419317002
98689.654893040962634
98689.669690705122775
98689.680703554360662
98689.685922497199499
98689.684753697569249
98689.678191368482658
98689.668846826607478
98689.660452622832963
98689.65613884938648
98689.656774942603079
98689.660726185931708
98689.665291628698469
98689.668974905944197
98689.67260762481601
98710.047281720806495
98710.578108687288477
98711.132375508808764
98711.711409513154649
98712.316825304165832
98712.950355648223194
98713.613640789684723
98714.308178851249977
98715.035188652283978
98715.795630579916178
98716.5900836300425
98717.418950815233984
98718.282263434899505
98719.179892450832995
98720.111507484092726
98721.076338647981174
98722.074193734995788
98723.102654194561183
98724.161270385520766
98725.239893246805877
98689.653648889201577
98689.650436425639782
98689.647852651236462
98689.652367238901206
98689.668424636329291
98689.696382077832823
98689.731519781096722
98689.766027930469136
98689.792285819115932
98689.80657171193161
98689.810173525067512
98689.807039184102905
98689.800654886115808
98689.792319777421653
98689.781322238690336
98689.766529594984604
98689.748603610234568
98689.730832699817256
98689.717684817660484
98689.712656568473903
98689.716872744946158
98689.728846115787746
98689.745179744742927
98689.762029565157718
98689.775850394638837
98689.784011018462479
98689.785278731505969
98689.780559525243007
98689.772941121205804
98689.766899682610529
98689.766625190983177
98689.773968422174221
98689.787682678288547
98689.804285800331854
98689.820062058031908
98689.83336957807478
98714.120604733703658
98714.720312378922245
98715.344629809856997
98715.994934914750047
98716.672645868355175
98717.379052607619087
98718.11523091122217
98718.881980076810578
98719.679976436353172
98720.509750767872902
98721.371822244022042
98722.266436248537502
98723.193632846712717
98724.153218584018759
98725.144542853799067
98726.167493893532082
98727.21975983165612
98728.300907345575979
98729.401424110459629
98689.601228495535906
98689.609748835631763
98689.626835672112065
98689.654720675782301
98689.692052429338219
98689.734190513423528
98689.774606493796455
98689.807460105075734
98689.830015297615319
98689.843403363149264
98689.850898632794269
98689.855344877607422
98689.857708768438897
98689.857061946968315
98689.851968739501899
98689.842329640698154
98689.830190564607619
98689.819413109100424
98689.814117508998606
98689.816625732230023
98689.826591638600803
98689.841605432535289
98689.858352783281589
98689.87333988933824
98689.883714182360563
98689.888336129166419
98689.888144639684469
98689.885892599762883
98689.885848040445126
98689.89260648668278
98689.908865105069708
98689.933706589334179
98689.962781293361331
98689.990253155323444
98717.030400197516428
98717.650861186237307
98718.294738729062374
98718.963240994824446
98719.65748907320085
98720.378394508195925
98721.126593413515366
98721.902508663362823
98722.706479363667313
98723.538917549347389
98724.400256621243898
98725.291064513483434
98726.211837691254914
98727.163032094045775
98728.144930310270865
98729.157254935111268
98730.200062139512738
98731.271203089607297
98732.370278658578172
98733.488434214668814
98689.534819353066268
98689.554792443697806
98689.585309490532381
98689.626246663552593
98689.67443321722385
98689.72482584300451
98689.772071769533795
98689.812203594017774
98689.843799928901717
98689.867928419873351
98689.886943589517614
98689.903049795408151
98689.917125256703002
98689.928281514017726
98689.93471513838449
98689.935276777599938
98689.930779834685382
98689.924209650213015
98689.919882061803946
98689.921255413311883
98689.929385621333495
98689.943286093111965
98689.960647599000367
98689.978274007531581
98689.993237443573889
98690.004058277991135
98690.011173450155184
98690.016925103132962
98690.025289635406807
98690.04080446404987
98690.066397962771589
98690.10121070263267
98690.14007783443958
98721.153988516380196
98721.841565622205962
98722.553540794047876
98723.290601707747555
98724.053116317067179
98724.841144943420659
98725.654595717642223
98726.493317668020609
98727.357273964895285
98728.246606820306624
98729.161848509829724
98730.103788241409347
98731.073401028392254
98732.071628473815508
98733.09884216824139
98734.155583870611736
98735.240207201772137
98736.352569373586448
98737.484593501591007
98689.470156211173162
98689.514329779602122
98689.569393767233123
98689.630391966507887
98689.691587027424248
98689.748517626387184
98689.79876362120558
98689.841836041610804
98689.878773851742153
98689.91113133043109
98689.94026575711905
98689.966965057290508
98689.99073885922553
98690.009871766844299
98690.022537662502145
98690.028133031039033
98690.028251863477635
98690.02675914944848
98690.028425543147023
98690.036477586720139
98690.051307878515217
98690.070862745167688
98690.092083713956526
98690.112338752791402
98690.130342374148313
98690.146539490408031
98690.162935165921226
98690.182620207095169
98690.208871492694016
98690.243353190395283
98690.284748426827719
98690.328373801123234
98724.605207855754998
98725.336126653855899
98726.09090152871795
98726.869662210519891
98727.672173014929285
98728.497902317787521
98729.346172209843644
98730.216348351808847
98731.108172423453652
98732.02184583361668
98732.95809048130468
98733.917932370837661
98734.902698145087925
98735.913724613681552
98736.951914248595131
98738.018389497548924
98739.112228628437151
98740.233694873168133
98741.37558278121287
98689.427342616545502
98689.496111870772438
98689.571141551874462
98689.64632076396083
98689.716794395004399
98689.779889029217884
98689.835192657410516
98689.884098188573262
98689.92855050349317
98689.970083227948635
98690.009187162460876
98690.044783147648559
98690.074842888308922
98690.097557359709754
98690.112204266115441
98690.120324728733976
98690.125856957820361
98690.13353494121111
98690.146474041248439
98690.165389408502961
98690.189040045268484
98690.215172827083734
98690.241825291173882
98690.268326408113353
98690.295085334757459
98690.323281143413624
98690.354432543812436
98690.389780131939915
98690.429575035494054
98690.472462514357176
98728.754194350680336
98729.550322188224527
98730.368829618877498
98731.208808896015398
98732.069179243640974
98732.948938187677413
98733.847359533348936
98734.764189693407388
98735.699684792023618
98736.654741502585239
98737.630742157271015
98738.629339271254139
98739.652210874439334
98740.700546347623458
98741.775583019218175
98742.876677334716078
98744.004392999020638
98745.152626671901089
98689.395841418780037
98689.484550079185283
98689.575007573715993
98689.661417496332433
98689.740045724625816
98689.810106651799288
98689.872862152493326
98689.930131673929282
98689.983238777247607
98690.032425556390081
98690.077004488994135
98690.115675874956651
98690.147385101226973
98690.172354989073938
98690.192341218091315
98690.210418937902432
98690.230081074885675
98690.253737734485185
98690.281981030988391
98690.313804902645643
98690.347522699288675
98690.382045513222693
98690.417420904050232
98690.454311289839097
98690.492870945774484
98690.53272578236647
98690.573421408800641
98690.614352261618478
98732.060110209044069
98732.893998557905434
98733.747854062341503
98734.62034574757854
98735.510259684568155
98736.416712749953149
98737.339306953464984
98738.278214568723342
98739.234090864716563
98740.208052237823722
98741.201464161349577
98742.215877423295751
98743.252848259231541
98744.313499190480798
98745.399044061749009
98746.509060916461749
98747.644055140699493
98748.79842585127335
98689.384882377649774
98689.487648533671745
98689.588385976065183
98689.683143588816165
98689.770425636030268
98689.850076561458991
98689.922401100833667
98689.98757254020893
98690.045817579812137
98690.097180312892306
98690.141718940198189
98690.1799648974702
98690.213265701939235
98690.243934978992911
98690.274770627758699
98690.3082099960302
98690.345500257899403
98690.386450031248387
98690.429942772534559
98690.474855000386015
98690.520602313175914
98690.567142425017664
98690.614100296457764
98690.660338357760338
98690.704547742003342
98690.745722025487339
98690.783165814820677
98736.09517341083847
98736.979444594078814
98737.879379149875604
98738.793745619361289
98739.722045506627182
98740.66454639332369
98741.622182431281544
98742.596300997684011
98743.588433587210602
98744.599994949821848
98745.632137361477362
98746.685782890868722
98747.761471853256808
98748.859907082922291
98749.980606616460136
98751.124074454332003
98752.285631871709484
98689.15928787352459
98689.262157442950411
98689.371542539636721
98689.482698444830021
98689.591710842374596
98689.695773470084532
98689.79248368696426
98689.879882335095317
98689.957151937691378
98690.024611320506665
98690.083603454957483
98690.1361210236646
98690.184312618526747
98690.230079297645716
98690.275529987673508
98690.322723228062387
98690.373004464709084
98690.42661329220573
98690.482869677944109
98690.540733420813922
98690.599181397352368
98690.657200080386247
98690.713566529506352
98690.766862212200067
98690.815629107382847
98690.858636818520608
98690.895276263006963
98740.013711151201278
98740.935186050948687
98741.869824462366523
98742.817725360248005
98743.779644662339706
98744.756851471684058
98745.750848780269735
98746.763154398344341
98747.795014090384939
98748.847264744224958
98749.920324478225666
98751.014085164191783
98752.128475736884866
98753.262624904236873
98754.416606860540924
98755.586386049428256
98689.064876009870204
98689.164101428672438
98689.269355514799827
98689.378985822448158
98689.491410718837869
98689.603946575894952
98689.712544915659237
98689.813050957483938
98689.903213343743118
98689.983216524866293
98690.054787100336398
98690.120134778000647
98690.181033825763734
98690.23892752629763
98690.295571616108646
98690.353257504611975
98690.413954345334787
98690.478438838690636
98690.546044464979786
98690.615061270160368
98690.683311473156209
98690.748719740848173
98690.80965925064811
98690.864702013132046
98690.912715119062341
98690.953369836977799
98690.987518525653286
98691.01697243405215
98743.360430999586242
98744.308535802992992
98745.271022471846663
98746.248901560538798
98747.243367767718155
98748.255664575553965
98749.286873537523206
98750.337671145593049
98751.408291990985163
98752.498564968933351
98753.607999279833166
98754.736305394821102
98755.882773915727739
98757.047407968944754
98758.226950336655136
98689.090004006618983
98689.187551082082791
98689.290583123583929
98689.39910348180274
98689.511280009421171
98689.623262547102058
98689.730655473278603
98689.830718406665255
98689.923047213116661
98690.008614136037068
98690.088396459599608
98690.162914238273515
98690.232847375082201
98690.299711760831997
98690.365994947816944
98690.434339269719203
98690.506436182040488
98690.58203447208507
98690.658999410137767
98690.734346967888996
98690.804969364908175
98690.86832007074554
98690.922974513639929
98690.968767980637494
98691.00691195372201
98691.039744547961163
98691.070121796394233
98746.18045901262667
98747.154824994955561
98748.145984647213481
98749.154922261703177
98750.18240287907247
98751.228879077112651
98752.294449198903749
98753.378953554187319
98754.482069673656952
98755.603313410538249
98756.742290812006104
98757.898455231290427
98759.07176713849185
98760.259438582477742
98689.124609455306199
98689.21741481157369
98689.318010763992788
98689.425684926769463
98689.537104740840732
98689.648169010994025
98689.75595890529803
98689.859428759926232
98689.958394310480799
98690.05222975272045
98690.139872910134727
98690.220891988938092
98690.296584688170697
98690.369656440656399
98690.443361255194759
98690.52022232071613
98690.600626145009301
98690.682450026331935
98690.761985669712885
98690.835255056386814
98690.899246843255241
98690.95265907162684
98690.996386576414807
98691.033269973864662
98691.067285186538356
98691.101906405587215
98748.801964544079965
98749.805519276094856
98750.827727001116727
98751.868724308704259
98752.928390742832562
98754.006490582833067
98755.102527424227446
98756.216060373088112
98757.346755181977642
98758.494492860671016
98759.658962002256885
98760.840044123251573
98762.035260785152786
98689.162163589309785
98689.252547348500229
98689.351624066926888
98689.457482918674941
98689.567330264908378
98689.678539366388577
98689.789271365676541
98689.898137521886383
98690.003361813927768
98690.102632317415555
98690.194296738714911
98690.278660171170486
98690.358048670983408
98690.435909893538337
98690.515589585062116
98690.598269358830294
98690.682184678851627
98690.76360122578626
98690.838225639978191
98690.90257918840507
98690.955318777749198
98690.998284421832068
98691.035993565936224
98691.073670749363373
98691.114902799381525
98751.262413239586749
98752.296580733032897
98753.349443265833543
98754.420316953735892
98755.508455021030386
98756.613382016497781
98757.734784951695474
98758.872633391205454
98760.026988121986506
98761.197832447243854
98762.385041480825748
98763.586391278455267
98689.205234767534421
98689.294502010612632
98689.392755619424861
98689.498299030310591
98689.609263586331508
98689.723504679917824
98689.838651145837503
98689.951944431697484
98690.060085445336881
98690.160261697732494
98690.251675823994447
98690.336099441803526
98690.41692454337317
98690.497726275134482
98690.580427908978891
98690.66402301294147
98690.745085737144109
98690.819357402055175
98690.883624583453638
98690.937028362575802
98690.981921482889447
98691.023342316155322
98691.066907092928886
98691.115967084639124
98689.251469055147027
98689.341106810024939
98689.439610891291522
98689.545703668831266
98689.657847845621291
98689.77387549848936
98689.89059152349364
98690.003702832487761
98690.109427741583204
98690.206052671943326
98690.294636580438237
98690.378177558304742
98690.460257332786568
98690.543203254288528
98690.626740502237226
98690.707838407717645
98690.782522884692298
98690.84790848637931
98690.903635911745369
98690.952406634867657
98690.999373335929704
98691.049924931168789
98691.106910364425858
98689.393264938029461
98689.491472661873559
98689.597295962928911
98689.709248307801317
98689.824627869107644
98689.939267757930793
98690.048743784907856
98690.150141686317511
98690.243239899064065
98690.330136812088313
98690.41410240305413
98690.497579300426878
98690.58062917557254
98690.660905665907194
98690.735082648723619
98690.801155941255274
98690.859599098766921
98690.913425463586464
98690.967411201330833
98691.025988108449383
98691.090990847151261
98689.752360806669458
98689.864845622476423
98689.975038914606557
98690.079224660512409
98690.175928680546349
98690.266455715842312
98690.353454361946206
98690.438927168695955
98690.522909418054041
98690.603497466319823
98690.678217094537104
98690.745943225847441
98690.807987317981315
98690.867586152409785
98690.928875292171142
98690.995221960358322
98691.067461345694028
98690.100430724662147
98690.195206924108788
98690.286342504638014
98690.375346362998243
98690.461915673498879
98690.544108921152656
98690.620036426262232
98690.68961097956344
98690.755044523830293
98690.819926696567563
98690.88773857500928
98690.96070254665392
98691.038809197460068
98690.112669114401797
98690.20865735571715
98690.302192937917425
98690.392434910769225
98690.477478866421734
98690.556138460582588
98690.628982952985098
98690.698666546333698
98690.7688096879574
98690.842380763555411
98690.920661160373129
98691.002887806418585
98692.369992871957948
98692.296593581806519
98692.206150220008567
98692.105546079284977
98692.001761790874298
98691.897725343238562
98691.792357017635368
98691.683386429198436
98691.569210764559102
98691.44954705532291
98691.324254681559978
98691.193066958468989
98691.055990350127104
98690.914338740170933
98690.771409253109596
98690.631076331046643
98690.495391328528058
98690.364084101034678
98690.235702272169874
98690.108333626019885
98692.444477721917792
98692.397774180673878
98692.329459779983154
98692.241504041157896
98692.14210814407852
98692.039993995145778
98691.938728577602888
98691.83646715512441
98691.729146676851087
98691.613954047425068
98691.491018290180364
98691.362161223980365
98691.228815871625557
98691.091200133538223
98690.949499354886939
98690.805355670716381
98690.662178866856266
98690.523046326081385
98690.389423944419832
98690.261054261311074
98690.135657692197128
98690.009278372584959
98692.511803669593064
98692.489314739388647
98692.465512129725539
98692.425771534952219
98692.361937337598647
98692.275985883927206
98692.177354875020683
98692.076260007466772
98691.977174218831351
98691.877474532011547
98691.77136942553625
98691.655135299108224
98691.529286695760675
98691.397298772848444
98691.262291684673983
98691.124637627232005
98690.983237742548226
98690.838209103851113
98690.692501212790376
98690.550328564975644
98690.414791982766474
98690.286625483844546
98690.163084726358647
98690.038640428465442
98689.908116280348622
98689.770529223635094
98692.54579552540963
98692.513132586813299
98692.49589208085672
98692.478685591777321
98692.445034693810157
98692.385269426129526
98692.300957552171894
98692.202585012360942
98692.102135348308366
98692.004895546459011
98691.907475710919243
98691.802676142106066
98691.685702398579451
98691.557261272260803
98691.422384884208441
98691.285759269594564
98691.148140373348724
98691.00706045429979
98690.861139730244759
98690.7128385543474
98690.567473293151124
98690.429869606363354
98690.301810137054417
98690.180060227285139
98690.057455807720544
98689.927365744981216
98689.788500404247316
98689.645011687898659
98692.601641907953308
98692.544779948933865
98692.515146994541283
98692.503173251257977
98692.492252197655034
98692.464178370471927
98692.407806339731906
98692.324561422079569
98692.226283948461059
98692.126294070403674
98692.03053619505954
98691.934982570208376
98691.831094970446429
98691.713214978954056
98691.582397986931028
98691.445129121493665
98691.307480125571601
98691.170121142131393
98691.02945169773011
98690.882995552907232
98690.73268227353401
98690.584799449832644
98690.445586563786492
98690.317725655069808
98690.197673886985285
98690.076782147050835
98689.947109692468075
98689.807011516881175
98689.661608448499464
98689.517791304329876
98692.684114758099895
98692.596808489659452
98692.540275652179844
98692.512821893382352
98692.504952736009727
98692.499122672816156
98692.47529224884056
98692.421348364834557
98692.338748847745592
98692.240106550307246
98692.140272441654815
98692.045780489163008
98691.952103994815843
98691.849391533251037
98691.730922202157672
98691.597990042544552
98691.458398656075587
98691.319572922773659
98691.182590563475969
98691.042552553626592
98690.895522408100078
98690.743228970313794
98690.592856355360709
98690.45222262009338
98690.324688438064186
98690.206249699360342
98690.086850340638193
98689.957347398230922
98689.816163271956611
98689.669283882918535
98689.524573711183621
98689.38610757283459
98692.685090039332863
98692.59705398218648
98692.540670051836059
98692.5154882115894
98692.511558146128664
98692.510139952137251
98692.489992393457214
98692.438014745697728
98692.355646535826963
98692.256426566673326
98692.156459464444197
98692.062854176008841
98691.970435395865934
98691.868297683031415
98691.749134740064619
98691.614548556186492
98691.47338538695476
98691.333935188900796
98691.19716766923375
98691.057474848275888
98690.910100347929983
98690.756510646766401
98690.604345289277262
98690.462684439509758
98690.335557045036694
98690.218570219061803
98690.100540529834689
98689.971292481786804
98689.829120190945105
98689.680676260861219
98689.534911814902443
98689.396383747807704
98689.261552263022168
98700.874926397882518
98700.691908087159391
98700.521066682616947
98700.371537124941824
98700.254956615011906
98700.168015222661779
98692.682973841394414
98692.594309884618269
98692.537865868129302
98692.513966499056551
98692.512675102363573
98692.514212722991942
98692.49640097685915
98692.445516693915124
98692.362985876141465
98692.263063505670289
98692.16293969018443
98692.070087699306896
98691.978767742111813
98691.877309308474651
98691.757796434976626
98691.621929813991301
98691.479349732078845
98691.339339931830182
98691.202877463685581
98691.063629807205871
98690.916006425701198
98690.761271228504484
98690.607630009442801
98690.465056576329516
98690.338270620224648
98690.22246912488481
98690.105513459231588
98689.976388653623872
98689.833475640538381
98689.683978233690141
98689.537601857431582
98689.399330887114047
98689.265147376645473
98689.126299477080465
98701.069751471513882
98700.875967154250247
98700.693146647841786
98700.521813486979227
98700.371560392755782
98700.254932744748658
98700.169265359450947
98692.6888084578095
98692.600018336786889
98692.54363451100653
98692.520543551610899
98692.521017681254307
98692.524257985016447
98692.507673998916289
98692.457414040880394
98692.374717421029345
98692.274368762635277
98692.174173235805938
98692.081725078256568
98691.990926239042892
98691.88975324499188
98691.769951814858359
98691.633308102813317
98691.49006430375448
98691.349890078708995
98691.213556490823976
98691.074443668418098
98690.926689766230993
98690.771358703248552
98690.616976366756717
98690.473980385475443
98690.347572578990366
98690.232559260286507
98690.116167274289182
98689.987111017369898
98689.8437754366023
98689.69363064315985
98689.546855284308549
98689.408784437269787
98689.274888818967156
98689.136167970253155
98688.98761102266144
98709.198875905916793
98709.902820385847008
98710.637724091429845
98711.405380098440219
98712.20813041740621
98713.048367094394052
98713.927995202873717
98714.849049409167492
98715.810666098346701
98716.813260838593123
98717.845037289589527
98691.029046255891444
98691.013102339245961
98690.996955891270773
98690.980708030649112
98690.96510677531478
98690.951466136379167
98690.940944618720096
98690.933177073849947
98690.926481789632817
98690.919547528930707
98690.913092920178315
98690.909667159605306
98690.912275129259797
98690.92219051826396
98690.936877886415459
98690.950886126942351
98690.958644820697373
98690.957053644116968
98690.947098043441656
98690.933248466753867
98690.921115918332362
98690.915216655368567
98690.918157873180462
98690.929671317149769
98690.946320109345834
98690.962682876575855
98690.973283430212177
98690.974408621434122
98690.965357014196343
98690.948407642863458
98690.927399317588424
98690.906082630041055
98690.887116165686166
98690.87171369085263
98690.859770336392103
98690.850422030023765
98707.1840422891255
98707.648590729339048
98708.139117004946456
98708.657210074787145
98709.204122937997454
98709.780591162081691
98710.386813468678156
98711.022493356838822
98711.687083707423881
98712.37998238982982
98713.100921978781116
98713.850130169565091
98714.628671188896988
98715.438139148391201
98716.280658516829135
98717.158498076038086
98718.073470198040013
98719.027588765122346
98720.020043488562806
98721.051361414618441
98722.110739029492834
98690.952118663335568
98690.948977035819553
98690.949954081734177
98690.952758866405929
98690.956249395312625
98690.960971127788071
98690.96783053476247
98690.976234407920856
98690.984144836256746
98690.989405374712078
98690.991660341707757
98690.992970176172093
98690.996770376543282
98691.005765027133748
98691.019646127533633
98691.03493329876801
98691.047310845198808
98691.05353663409187
98691.053080290061189
98691.04849549739447
98691.044119244805188
98691.044029136159224
98691.050996264879359
98691.065232512526563
98691.083687584992731
98691.101027085605892
98691.111916060966905
98691.11306620502728
98691.104282232059631
98691.088334883374046
98691.069450528768357
98691.051318517056643
98691.03604277165141
98691.024046882477705
98691.014503192956909
98691.006099024132709
98710.606317917598062
98711.117406960227527
98711.655311011374579
98712.221183698740788
98712.815788395499112
98713.439447716154973
98714.092059379559942
98714.77315686030488
98715.482124816480791
98716.218400287732948
98716.981768229365116
98717.772429614604334
98718.591234834646457
98719.439517187318415
98720.319132931093918
98721.232095127386856
98722.179958703694865
98723.164560568024172
98724.185053592605982
98725.242024159917491
98726.325654916989151
98690.876355783242616
98690.895749192248331
98690.918378466594731
98690.941420400820789
98690.964564492693171
98690.98830262410047
98691.012388292496325
98691.034766722601489
98691.052634468156612
98691.064482629444683
98691.071310141749564
98691.076597794657573
98691.084361376386369
98691.09683913126355
98691.113344033961766
98691.131056916638045
98691.146420726159704
98691.156984993547667
98691.162961049878504
98691.166876096001943
98691.17223326677049
98691.182274116988992
98691.198201250837883
98691.217758602841059
98691.235949573310791
98691.247671549586812
98691.249835683949641
98691.242676675377879
98691.229343813611194
98691.21422313824587
98691.200860995333642
98691.190806926839286
98691.183718968270114
98691.178002113781986
98714.591986526793335
98715.173682075313991
98715.783354048573528
98716.421428313638899
98717.087939573742915
98717.782579410093604
98718.504798991067219
98719.253985317613115
98720.029653795209015
98720.831681197742
98721.660290686559165
98722.516226454492426
98723.400520427123411
98724.314578624034766
98725.259997512868722
98726.238022947887657
98727.250282873224933
98728.295883136001066
98729.375341065300745
98730.479655822840868
98690.798937854284304
98690.835318607729278
98690.875473731692182
98690.915453412235365
98690.954248049965827
98690.99245337593311
98691.030238031016779
98691.065866038727108
98691.096379022259498
98691.119255851779599
98691.134138383669779
98691.143872490647482
98691.153100409108447
98691.165941936997115
98691.184153584297746
98691.206499513762537
98691.229493011167506
98691.249416786304209
98691.264625516938395
98691.2762361777568
98691.287283911078703
98691.301097452480462
98691.319264650272089
98691.340226437052479
98691.3598372987326
98691.37377977174765
98691.379501764153247
98691.377092142152833
98691.36923988754279
98691.359900727227796
98691.35239286745491
98691.3480433307559
98691.346059058385435
98691.34435851998569
98718.056439804160618
98718.678340875179856
98719.327741576576955
98720.004948632762535
98720.709914794686483
98721.442325773459743
98722.20172255995567
98722.987639709128416
98723.799684911238728
98724.637731708266074
98725.50190635380568
98726.392747884514392
98727.311023100744933
98728.257712236067164
98729.233840431872522
98730.240069090112229
98731.277538678972633
98732.345214832894271
98733.443610981528764
98734.564590635316563
98690.767564297406352
98690.821367571654264
98690.875036685814848
98690.926926885760622
98690.977234070509439
98691.02656339512032
98691.074163996425341
98691.117368202365469
98691.153117816706072
98691.179939404857578
98691.198851927780197
98691.213348377350485
98691.228109141229652
98691.246935579038109
98691.270795296441065
98691.297746227617608
98691.324338465026813
98691.347885330571444
98691.367846110399114
98691.385880333124078
98691.404671427895664
98691.4261061718571
98691.449751817752258
98691.472812101885211
98691.491855048880097
98691.504573664424242
98691.510696850207751
98691.511934250534978
98691.510991183371516
98691.510123027910595
98691.510270457642036
98691.510944783251034
98722.152863085808349
98722.838735938639729
98723.551789194534649
98724.292023312751553
98725.059181082091527
98725.852842365158722
98726.672602295860997
98727.518141998836654
98728.389385405476787
98729.286451320673223
98730.209688496004674
98731.159493349696277
98732.136350398155628
98733.140759894653456