/*--------------------------------*- C++ -*----------------------------------*\
  =========                 |
  \\      /  F ield         | OpenFOAM: The Open Source CFD Toolbox
   \\    /   O peration     | Website:  https://openfoam.org
    \\  /    A nd           | Version:  12
     \\/     M anipulation  |
\*---------------------------------------------------------------------------*/
FoamFile
{
    format      ascii;
    class       volScalarField;
    location    "0.00518";
    object      pPrime2Mean;
}
// * * * * * * * * * * * * * * * * * * * * * * * * * * * * * * * * * * * * * //

dimensions      [2 -2 -4 0 0 0 0];

internalField   nonuniform List<scalar> 
106891
(
170402.12872314453125
170394.69489860534668
170399.65468597412109
170415.96171379089355
170449.94378089904785
170504.7852611541748
170590.60538673400879
170705.63082504272461
170854.54370307922363
171040.41719818115234
171244.68982887268066
581136.92194557189941
579184.68089485168457
577256.67835426330566
575347.43550109863281
573450.60229873657227
571559.95217704772949
569670.98041915893555
567781.40740966796875
565892.45386505126953
564008.70361518859863
562133.4328441619873
560264.81380081176758
558398.68997573852539
556533.70287322998047
554670.46171188354492
552807.43510818481445
550941.95111846923828
549073.82379913330078
547205.93249130249023
545343.23471260070801
543491.41729736328125
541652.55781364440918
539824.17095184326172
538004.04956436157227
536194.01799011230469
534398.39200401306152
532620.48359298706055
530861.85626411437988
529123.33283233642578
527403.50326156616211
525695.23372268676758
523987.59407806396484
522274.21896553039551
520557.44155502319336
518842.05886268615723
517127.26233291625977
515406.96677398681641
513676.03756523132324
171465.99040985107422
171215.92591667175293
170993.38165664672852
170796.18523597717285
170625.20141410827637
170483.82656478881836
170375.72106742858887
170301.85370445251465
170258.3738899230957
170237.39329528808594
170229.49354362487793
170229.02685165405273
170234.06792640686035
170250.67708587646484
170282.95988845825195
170341.93026733398438
170427.96462249755859
170546.6264533996582
170702.20866775512695
170876.09262084960938
579043.04734230041504
577106.06341743469238
575191.8167781829834
573290.51522636413574
571396.04850006103516
569507.31083106994629
567624.89799308776855
565750.45984649658203
563887.90629005432129
562039.16622543334961
560199.26095199584961
558360.92512512207031
556522.35855102539062
554686.00362014770508
552851.17853736877441
551013.64941787719727
549171.37183952331543
547327.14093017578125
545486.72994232177734
543655.17771911621094
541833.33121871948242
540019.49843215942383
538214.32397651672363
536421.35717964172363
534643.87759208679199
532882.58849716186523
531136.78157997131348
529406.32394027709961
527690.22271537780762
525982.04149055480957
524269.3138599395752
522541.36656761169434
520797.48887252807617
519045.43643569946289
517292.29404258728027
515538.31000518798828
171443.63041305541992
171195.79125213623047
170974.3934497833252
170776.25691986083984
170602.15986824035645
170455.97362327575684
170341.91358947753906
170261.29726028442383
170210.45607376098633
170181.59332656860352
170165.28214836120605
170155.33451843261719
170148.93408966064453
170150.75548362731934
170164.21599197387695
170199.7526969909668
170258.94686317443848
170347.828857421875
170471.83909034729004
170612.90867805480957
579170.3590202331543
577195.8607292175293
575242.45483589172363
573298.88776397705078
571362.74124908447266
569439.57694625854492
567534.38263130187988
565649.63021659851074
563787.60836029052734
561947.28443336486816
560120.39132881164551
558297.66545486450195
556478.2351245880127
554666.98536109924316
552863.83737182617188
551061.48164176940918
549254.28680038452148
547444.40062141418457
545638.09793472290039
543839.56146430969238
542049.14278030395508
540266.28709602355957
538492.32572746276855
536729.12033843994141
534976.69501876831055
533234.05345153808594
531500.2550163269043
529775.35716247558594
528058.99908256530762
526346.35740661621094
524625.3557300567627
522882.18332672119141
521112.55657577514648
519325.71271324157715
517535.39895820617676
515748.10028648376465
171327.13072967529297
171106.64359855651855
170910.98108100891113
170738.10579872131348
170589.32789421081543
170467.25467109680176
170373.04806709289551
170304.37341690063477
170255.62580490112305
170219.66963005065918
170191.71266174316406
170169.24286460876465
170155.75432205200195
170153.27630996704102
170170.31925010681152
170208.2139835357666
170272.48123359680176
170369.20375442504883
170481.17660331726074
577582.80126190185547
575559.19061470031738
573539.82059669494629
571529.68789291381836
569542.2307014465332
567586.77516174316406
565665.65679359436035
563778.99014854431152
561923.62703704833984
560090.44921493530273
558270.70704460144043
556464.18418312072754
554676.27034568786621
552906.56807518005371
551145.90448379516602
549385.37520599365234
547624.2816276550293
545867.3919677734375
544117.65740203857422
542374.28716087341309
540636.04019165039062
538902.49761390686035
537172.87247467041016
535446.89021873474121
533725.62842750549316
532009.59491157531738
530296.60119819641113
528583.07758712768555
526864.04000663757324
525129.61717987060547
523367.10912132263184
521571.62096977233887
519753.21845054626465
517929.88076782226562
171942.70378875732422
171672.97467231750488
171440.96518325805664
171239.91242599487305
171064.6140251159668
170912.31584739685059
170782.23568344116211
170674.02820014953613
170585.9441089630127
170514.47616004943848
170455.11306762695312
170405.24111175537109
170363.61322212219238
170333.33916282653809
170315.34336280822754
170315.83486557006836
170335.05268669128418
170377.27193069458008
170448.94112586975098
170534.31999206542969
578311.86764526367188
576200.67402267456055
574089.31582260131836
571989.0245361328125
569918.86671447753906
567892.09262084960938
565912.19074440002441
563977.92599678039551
562086.42849159240723
560231.98801422119141
558407.92601585388184
556611.6672477722168
554844.15127182006836
553103.30947875976562
551381.12328720092773
549669.0186767578125
547964.62093925476074
546269.37152671813965
544581.94608879089355
542897.36157035827637
541210.47052192687988
539517.52853584289551
537817.87469673156738
536116.24381828308105
534420.07017135620117
532731.15193176269531
531041.78282165527344
529340.20996284484863
527617.51480293273926
525866.83391761779785
524080.89209747314453
522258.56479263305664
520412.24859619140625
172324.67651748657227
172065.80019569396973
171843.35545921325684
171651.36550331115723
171484.63219833374023
171339.71152687072754
171214.67182731628418
171107.80250549316406
171016.79182052612305
170938.72548294067383
170872.07586479187012
170816.10290145874023
170773.32388877868652
170743.73455238342285
170731.30732917785645
170734.7868537902832
170756.73332405090332
170803.53142738342285
170861.09981918334961
577182.30558586120605
574981.96879959106445
572793.32642364501953
570637.15623474121094
568530.16773796081543
566478.38273620605469
564480.55883026123047
562534.67516899108887
560639.54739761352539
558792.71825981140137
556990.1773509979248
555227.59796142578125
553500.15236663818359
551802.03542137145996
550128.3096866607666
548476.66089248657227
546844.07063293457031
545221.75663566589355
543596.55733680725098
541957.9217472076416
540302.48091316223145
538634.56901741027832
536965.25544738769531
535305.85710525512695
533656.51687049865723
532001.64684677124023
530319.94765663146973
528597.76922035217285
526831.75146675109863
525023.11582946777344
523177.9027214050293
521311.74657821655273
173342.81804847717285
173052.76736831665039
172800.02849197387695
172579.36776161193848
172385.51451873779297
172214.77498435974121
172065.41103553771973
171936.40240287780762
171826.25139427185059
171732.53838920593262
171653.61789131164551
171588.34214973449707
171537.9687385559082
171501.30062484741211
171480.14142608642578
171471.87371635437012
171477.30759429931641
171502.30223846435547
171533.70386505126953
576188.52237319946289
573916.77750778198242
571675.82422637939453
569484.78012847900391
567353.22437858581543
565281.01175498962402
563265.34339332580566
561306.84254455566406
559408.06067085266113
557568.14803504943848
555781.4034252166748
554041.3351993560791
552344.1130256652832
550687.6854305267334
549068.93846702575684
547479.63078689575195
545903.08455085754395
544319.22148323059082
542716.37814521789551
541096.77685928344727
539470.65221977233887
537849.09354591369629
536238.09893989562988
534631.34769821166992
533008.4888916015625
531345.26197052001953
529627.58808898925781
527855.43467712402344
526037.1324520111084
524185.33591270446777
174416.53199768066406
174133.47610855102539
173881.71945190429688
173656.8528003692627
173455.73112487792969
173277.08232688903809
173120.65898704528809
172986.18820190429688
172872.56622886657715
172778.73990440368652
172703.10275840759277
172645.17880249023438
172601.97563171386719
172572.99483680725098
172554.60625457763672
172546.39198112487793
172553.63601493835449
172563.41878509521484
575347.1786003112793
573016.17387962341309
570736.89496994018555
568522.91351699829102
566374.5072135925293
564284.35267448425293
562249.7733097076416
560276.28232192993164
558369.30234527587891
556528.81921577453613
554752.29538345336914
553036.42158508300781
551376.35517120361328
549764.97248077392578
548190.28153610229492
546631.70762634277344
545067.0369701385498
543486.62506675720215
541897.52890205383301
540311.95788383483887
538734.93284797668457
537162.24141502380371
535581.84980392456055
533975.00083923339844
532321.49578285217285
530609.52472496032715
528840.67085838317871
527025.8723030090332
176206.45499992370605
175895.51976013183594
175614.51834869384766
175360.32900047302246
175130.17745399475098
174922.60915946960449
174737.34869384765625
174574.80650520324707
174435.17740440368652
174318.57292556762695
174223.95069122314453
174150.08514595031738
174092.97396087646484
174050.33809852600098
174017.73860549926758
173993.7297534942627
173983.23671722412109
173973.97732162475586
574737.98935890197754
572373.76468467712402
570078.36624908447266
567852.56528472900391
565687.8205738067627
563580.26713752746582
561535.41622543334961
559561.0515251159668
557662.10634803771973
555839.94379043579102
554091.03768348693848
552407.40033149719238
550780.35558319091797
549199.13799858093262
547644.65334892272949
546093.32297134399414
544531.99715232849121
542964.2594108581543
541398.90487098693848
539837.02947807312012
538271.11057472229004
536689.84748077392578
535080.22947120666504
533429.74012565612793
531729.76433563232422
529977.62468147277832
528176.61495590209961
178154.08141708374023
177847.53927421569824
177566.15005683898926
177308.57846641540527
177073.7440013885498
176861.12286949157715
176670.86410713195801
176503.25060844421387
176358.68266296386719
176236.33672142028809
176134.91793060302734
176050.83967399597168
175981.9303035736084
175924.64466094970703
175877.4796314239502
175844.69720458984375
175813.64369201660156
579269.53173065185547
576796.35351943969727
574373.25483703613281
572013.11723327636719
569720.8350658416748
567494.73599815368652
565335.18477821350098
563247.55582427978516
561236.65537071228027
559302.46868515014648
557441.62184143066406
555649.54564666748047
553922.17048454284668
552257.22872161865234
550650.77700233459473
549088.48129463195801
547545.63443183898926
546000.12767028808594
544443.37904930114746
542877.10205459594727
541303.15315437316895
539719.39299774169922
538120.63599014282227
536499.4588680267334
534847.17872428894043
533154.68435478210449
531412.84621047973633
180571.02854537963867
180268.91198348999023
179987.60078620910645
179727.15200042724609
179487.86751747131348
179270.06098175048828
179073.49415397644043
178897.46952438354492
178740.18027687072754
178600.0195369720459
178474.70173454284668
178364.11933708190918
178267.82351112365723
178185.75948715209961
178121.91309928894043
178062.6960563659668
581078.6500301361084
578606.28041076660156
576179.22080421447754
573802.64545440673828
571482.9948616027832
569227.42175674438477
567044.00010299682617
564939.91842460632324
562915.66216278076172
560961.77262306213379
559065.61149978637695
557221.08889961242676
555431.72897529602051
553705.70024490356445
552045.89499092102051
550441.46544075012207
548868.7554988861084
547302.36219596862793
545726.36984443664551
544136.55155754089355
542535.16123390197754
540924.04919242858887
539300.92832374572754
537659.03292083740234
535988.9323673248291
534280.17619323730469
532523.31534004211426
530714.64409065246582
182751.54045295715332
182447.20936965942383
182162.52016067504883
181897.93680572509766
181653.27297782897949
181427.252685546875
181217.92611312866211
181022.76265716552734
180840.54258155822754
180670.7528190612793
180515.34109878540039
180375.9508113861084
180253.07151222229004
180150.09621429443359
180053.86190032958984
580425.88701629638672
578015.10010719299316
575645.85439109802246
573322.17471885681152
571055.5887393951416
568859.48889350891113
566742.16407775878906
564700.34462547302246
562718.19564056396484
560777.4929141998291
558871.68400573730469
557010.34410858154297
555209.3161506652832
553476.51071929931641
551804.50922203063965
550172.67093086242676
548556.83507537841797
546939.62253379821777
545313.90211296081543
543679.57813262939453
542037.56772041320801
540385.22033309936523
538715.44765853881836
537017.5552806854248
535280.3047924041748
533496.32060623168945
531666.02950286865234
185021.44305610656738
184713.04374885559082
184424.27904510498047
184154.23191452026367
183900.89632225036621
183661.76527976989746
183434.15810966491699
183217.14822959899902
183010.95064735412598
182818.29747772216797
182641.84819793701172
182482.29796981811523
182342.88024520874023
182210.71484184265137
580052.49204063415527
577695.97148132324219
575374.35848617553711
573101.47065544128418
570893.08985328674316
568755.74135208129883
566682.59527015686035
564656.0711669921875
562657.46413230895996
560681.17836952209473
558739.94124031066895
556853.47491645812988
555032.92354393005371
553274.13494110107422
551561.07108688354492
549873.99560737609863
548196.97434997558594
546521.08523750305176
544842.74698066711426
543159.80551147460938
541468.45578002929688
539762.0594654083252
538031.07923889160156
536264.5504207611084
534455.28077697753906
532603.88887214660645
187447.85460090637207
187129.35271644592285
186828.4891471862793
186542.80026435852051
186269.75382423400879
186007.0408992767334
185753.9367618560791
185510.63565254211426
185279.78771018981934
185064.34008979797363
184865.42217636108398
184687.03500366210938
184517.33328819274902
579885.24566650390625
577564.01407051086426
575284.38161659240723
573062.64061546325684
570902.35274314880371
568793.12294769287109
566717.0490608215332
564658.20258140563965
562613.59128189086914
560596.60188293457031
558627.13023567199707
556717.75921249389648
554868.08746719360352
553067.86076736450195
551302.95926856994629
549559.97823524475098
547828.24477958679199
546100.63480567932129
544372.50662612915039
542639.70500946044922
540897.31801605224609
539138.02019119262695
537350.96283149719238
535525.72054672241211
533658.77121353149414
190027.78585433959961
189693.10616302490234
189372.39617347717285
189063.52146339416504
188764.80071449279785
188475.56159591674805
188195.29784393310547
187925.73904037475586
187669.60133361816406
187428.79861068725586
187208.79018974304199
186999.13835906982422
579824.61242294311523
577536.0944709777832
575300.61965560913086
573118.42787933349609
570975.6458854675293
568854.48543930053711
566743.23459625244141
564642.40388870239258
562564.57081031799316
560526.54709053039551
558540.34119033813477
556609.05645751953125
554728.74199867248535
552891.82574653625488
551087.82358741760254
549304.18453407287598
547529.94600486755371
545758.57385635375977
543987.20458221435547
542213.99844741821289
540433.91448211669922
538634.80365562438965
536800.73044013977051
534922.07260894775391
579881.10450553894043
577631.92873191833496
575429.46646308898926
573257.83317565917969
571099.76189804077148
568947.1764965057373
566803.41733169555664
564679.17690277099609
562587.30355262756348
560538.18882369995117
558538.059814453125
556588.94454383850098
554688.8973388671875
552829.9858455657959
550998.50417900085449
549180.49191093444824
547368.77798461914062
545563.17024612426758
543764.40193367004395
541966.9610481262207
540155.03094863891602
538308.12368965148926
536414.60781860351562
577888.09848022460938
575690.69209289550781
573501.9707145690918
571314.58756256103516
569132.29258346557617
566965.37105369567871
564825.12190055847168
562721.58436393737793
560663.07421112060547
558655.02371978759766
556698.74249267578125
554788.66706085205078
552911.41530227661133
551052.26677131652832
549204.27569580078125
547368.83859825134277
545546.4966926574707
543727.91213417053223
541892.68622398376465
540019.51899909973145
538100.00851249694824
571616.35720443725586
569403.72246360778809
567215.38666915893555
565063.20556640625
562955.32063674926758
560896.4061279296875
558888.11280059814453
556927.42026710510254
555004.10765266418457
553105.22656059265137
551223.95954513549805
549360.0401782989502
547510.30844116210938
545660.36030578613281
543787.37473487854004
541873.39531517028809
539917.02669143676758
565363.06247711181641
563259.81554985046387
561202.99766731262207
559192.04261016845703
557221.71127128601074
555282.82004547119141
553368.24331474304199
551473.87937164306641
549591.10705184936523
547701.28183937072754
545781.94570350646973
543820.78558349609375
541823.37398529052734
565712.4860725402832
563611.36996459960938
561552.49956512451172
559536.4057559967041
557558.21791076660156
555609.72322082519531
553681.87047004699707
551761.37382125854492
549828.21489524841309
547862.84170532226562
545858.41514015197754
543824.5732536315918
780033.35489082336426
778435.5997371673584
776844.28409004211426
775222.74587249755859
773555.2569465637207
771839.49233055114746
770076.32081604003906
768264.1660270690918
766395.69487953186035
764458.84673118591309
762444.19778823852539
760352.51485252380371
758198.20903587341309
756003.08455467224121
753788.93943023681641
751574.74412536621094
749376.73988151550293
747206.62777900695801
745066.9371452331543
742950.70329666137695
783422.80244636535645
781793.2386589050293
780218.75861167907715
778647.22797584533691
777040.37484359741211
775382.52213287353516
773671.38319778442383
771908.26078987121582
770090.3148307800293
768207.64907455444336
766246.19656372070312
764195.85120391845703
762059.9236946105957
759858.27598190307617
757619.52651596069336
755369.78712463378906
753127.76626777648926
750906.70858383178711
748715.79337501525879
746557.37776756286621
744425.89079666137695
742315.48016166687012
788523.61721801757812
786709.96384811401367
785003.56794166564941
783392.81911087036133
781836.61716842651367
780280.54704093933105
778684.42957305908203
777032.41446685791016
775322.77757453918457
773556.94480133056641
771731.21092414855957
769833.43483352661133
767847.33024787902832
765762.18087959289551
763583.33085441589355
761336.19016075134277
759056.42068672180176
756774.09926223754883
754507.51386642456055
752266.78648376464844
750058.46789169311523
747884.73156547546387
745741.25984954833984
743624.33360290527344
741539.16051292419434
739498.43016052246094
791791.71238899230957
789893.68687057495117
788095.23525810241699
786401.81265258789062
784803.64334106445312
783259.65908622741699
781713.43072319030762
780123.86076736450195
778474.26973724365234
776762.8747386932373
774991.58042144775391
773156.27194976806641
771243.2132740020752
769234.55322456359863
767118.92989158630371
764903.2319221496582
762617.11604309082031
760301.73740005493164
757991.33159828186035
755703.96749877929688
753446.74813270568848
751223.91446495056152
749037.39889144897461
746884.02707290649414
744761.8890495300293
742677.50806427001953
740642.43254852294922
738664.44865608215332
794936.64218711853027
792951.96798706054688
791068.71046257019043
789281.29803657531738
787597.19645690917969
786008.4784984588623
784473.83696174621582
782935.24788093566895
781349.82318115234375
779700.73597145080566
777986.14187812805176
776208.44274139404297
774363.39811325073242
772435.87130355834961
770406.39716148376465
768263.17191505432129
766014.37543296813965
763693.73634719848633
761347.46236801147461
759012.82229995727539
756707.82535934448242
754437.26070976257324
752203.26145172119141
750007.36597633361816
747847.15215873718262
745722.28118324279785
743640.05344009399414
741610.55496406555176
739639.12168121337891
737724.44113922119141
797967.55421829223633
795871.39208793640137
793902.42434883117676
792030.12257194519043
790249.69650268554688
788570.40239524841309
786986.57150268554688
785457.05331039428711
783922.25417900085449
782338.47040176391602
780688.15554046630859
778969.42717552185059
777184.83606147766113
775330.52202606201172
773390.74176979064941
771344.78335952758789
769180.38681602478027
766906.48630332946777
764559.13538932800293
762188.3598461151123
759834.51493644714355
757515.59873962402344
755234.30131530761719
752991.06210136413574
750787.15061187744141
748621.0658130645752
746493.78616523742676
744413.31955718994141
742388.44147109985352
740422.21610069274902
738512.02689552307129
736656.57251930236816
798665.60631942749023
796583.74621963500977
794625.79181671142578
792760.95896530151367
790985.33964729309082
789309.64300727844238
787729.23871421813965
786203.14815139770508
784670.91102027893066
783087.86386489868164
781436.0455207824707
779713.46175193786621
777922.94943428039551
776060.71764755249023
774110.27018547058105
772050.0478401184082
769867.70712471008301
767573.33024597167969
765205.24447822570801
762815.9389820098877
760447.43142509460449
758118.16608238220215
755829.5548152923584
753580.64161491394043
751372.32511711120605
749203.58890724182129
747075.93744087219238
744997.74142837524414
742977.10087585449219
741015.38547897338867
739109.11459159851074
737257.49934005737305
735471.46077728271484
931020.03470420837402
927651.74786376953125
924317.9321460723877
921059.7357349395752
917898.93656539916992
914852.35513114929199
799134.04778861999512
797062.09775924682617
795111.56824493408203
793251.25478553771973
791477.64353179931641
789802.56147384643555
788222.73659896850586
786697.52896308898926
785165.62954330444336
783581.75224304199219
781927.91320419311523
780201.62440299987793
778405.90856170654297
776537.60373687744141
774580.0307445526123
772510.83136749267578
770317.65677261352539
768011.01273727416992
765630.05445289611816
763228.71338844299316
760850.83810615539551
758514.95742988586426
756221.46318435668945
753968.5091609954834
751757.06731605529785
749586.27792549133301
747458.03195953369141
745381.13412666320801
743363.24981307983398
741404.46884155273438
739500.70975112915039
737651.77380752563477
735868.95290756225586
734178.59452056884766
934809.94037818908691
931462.15253829956055
928082.34309959411621
924736.92142295837402
921467.23481750488281
918296.01541328430176
915239.94314002990723
799384.70368194580078
797317.49297523498535
795370.48456573486328
793512.12861442565918
791739.51350593566895
790065.01792526245117
788485.59514236450195
786960.87876510620117
785429.03585243225098
783844.35607719421387
782189.11589050292969
780460.5481128692627
778661.69667053222656
776789.74206352233887
774827.91134262084961
772753.37825965881348
770553.79993629455566
768240.13615417480469
765852.2846736907959
763444.88211059570312
761062.12808418273926
758722.83211517333984
756427.23018836975098
754172.79283905029297
751960.31082916259766
749789.05915832519531
747661.0740795135498
745585.1939582824707
743568.92313385009766
741611.93592834472656
739709.60072135925293
737862.28418731689453
736081.22014999389648
734392.82612037658691
732818.84455490112305
170202.52409934997559
170163.33275413513184
170154.33982849121094
170176.90041160583496
170234.21308517456055
170322.95062828063965
170446.18207168579102
170596.27388763427734
170774.4252758026123
170981.7825756072998
171201.24614524841309
579461.39266204833984
577392.24016761779785
575348.92267608642578
573322.12479209899902
571304.16523551940918
569294.60741424560547
567296.88758659362793
565314.25781440734863
563349.99746131896973
561405.13699150085449
559477.49223327636719
557563.76000213623047
555660.38276290893555
553763.34273338317871
551870.44500923156738
549983.00235366821289
548102.41293907165527
546228.74405097961426
544364.26663208007812
542515.77015113830566
540690.3857593536377
538888.62057876586914
537102.88974952697754
535323.09270668029785
533545.17930030822754
531773.06779289245605
530011.28899383544922
528256.28599166870117
526498.6634407043457
524734.12671661376953
522967.94829177856445
521207.99777030944824
519457.61084365844727
517715.51788330078125
515978.88964080810547
514244.59581184387207
171822.62323570251465
171476.30772590637207
171172.49708366394043
170911.05485153198242
170689.57344627380371
170503.48835563659668
170346.95898628234863
170214.37933731079102
170102.01505088806152
170008.80825233459473
169936.43961906433105
169887.65108489990234
169866.17647552490234
169873.24670600891113
169911.71501922607422
169978.54932022094727
170076.86435890197754
170200.29950714111328
170350.2929744720459
170528.9795036315918
170719.75845146179199
579522.52530288696289
577439.61637878417969
575389.87553787231445
573356.68900108337402
571328.55569458007812
569307.22377777099609
567301.45235061645508
565318.52261924743652
563361.8770809173584
561430.61078071594238
559520.85953330993652
557629.89990997314453
555756.13058853149414
553895.43038177490234
552042.67726898193359
550195.82117080688477
548354.9557056427002
546518.96359825134277
544687.41048049926758
542863.94898986816406
541054.70919227600098
539261.62466430664062
537479.03813934326172
535697.83966064453125
533913.93586730957031
532131.29867935180664
530354.71399688720703
528580.2939281463623
526798.31183815002441
525005.06669235229492
523206.68728446960449
521411.44637489318848
519622.96561050415039
517839.85284423828125
516057.95575332641602
514272.59255790710449
171797.6837329864502
171441.11943435668945
171127.62337684631348
170857.35708045959473
170628.39850234985352
170436.58670043945312
170276.03431701660156
170140.34994888305664
170024.36004447937012
169925.41135406494141
169844.03413581848145
169782.70634078979492
169745.37077903747559
169733.65646743774414
169750.33206748962402
169792.61514282226562
169863.37332344055176
169957.16084861755371
170075.36484336853027
170220.81899642944336
170377.42066192626953
577784.1683406829834
575715.47428321838379
573663.29567909240723
571615.02396583557129
569576.678466796875
567563.46539306640625
565585.64496421813965
563642.68470764160156
561726.59921455383301
559830.62347793579102
557956.24651908874512
556109.46843910217285
554288.94678688049316
552484.16438674926758
550684.66493034362793
548885.77031135559082
547085.50615119934082
545283.18523979187012
543482.2136344909668
541689.38344383239746
539908.27230072021484
538133.84763145446777
536355.16733360290527
534565.48739814758301
532768.10088920593262
530969.92714309692383
529170.23578262329102
527361.59451103210449
525540.46250343322754
523711.70606231689453
521882.27359199523926
520054.90746307373047
518227.44527626037598
516395.18594360351562
171631.43658828735352
171306.10475921630859
171022.70355415344238
170780.59171867370605
170576.9793701171875
170406.77396774291992
170263.33396911621094
170140.16367721557617
170032.74085998535156
169939.95168876647949
169863.52357482910156
169807.44442176818848
169774.08963966369629
169766.68027114868164
169783.10879135131836
169826.17236328125
169891.29008483886719
169979.56332015991211
170094.02524375915527
170218.31061744689941
578331.94078063964844
576227.85918998718262
574143.38098335266113
572069.44878578186035
570016.54617500305176
568002.07246589660645
566033.38412475585938
564103.26856422424316
562198.07441520690918
560310.94018745422363
558450.15536308288574
556630.36172676086426
554852.66708946228027
553099.69546127319336
551350.33306884765625
549593.01745223999023
547825.12182426452637
546048.95322227478027
544271.4791431427002
542501.92068099975586
540743.6561107635498
538988.18964767456055
537219.74222373962402
535428.6535530090332
533618.65545272827148
531800.31358909606934
529978.68045043945312
528149.9843578338623
526309.06692123413086
524456.13569068908691
522595.29472541809082
520729.41872596740723
518858.12574195861816
516978.85614395141602
172078.4866828918457
171740.2006664276123
171441.70597076416016
171183.56388092041016
170964.34826278686523
170779.84704971313477
170623.48604393005371
170488.06537055969238
170367.93404769897461
170260.88984680175781
170167.94149589538574
170092.68192481994629
170037.41971206665039
170005.16770553588867
169994.34123802185059
170008.11497116088867
170043.74944114685059
170103.14773559570312
170190.08271789550781
170287.77618217468262
576921.22229766845703
574791.6981201171875
572687.36444091796875
570618.80805969238281
568597.62559127807617
566624.60234832763672
564688.68416976928711
562776.64468383789062
560886.39436340332031
559032.00778007507324
557231.88821792602539
555487.1935920715332
553775.04282188415527
552065.53604316711426
550340.9055118560791
548598.60029983520508
546845.26983070373535
545093.32262420654297
543354.46980857849121
541628.46845817565918
539899.00648498535156
538144.94680023193359
536356.04361915588379
534538.24067687988281
532706.18042755126953
530870.47426986694336
529030.20503807067871
527176.66568374633789
525303.74506378173828
523413.50417900085449
521512.65761375427246
519605.93128776550293
172466.71003913879395
172151.83666610717773
171876.20358085632324
171639.15411186218262
171436.81682395935059
171262.78695297241211
171110.02753067016602
170973.05959510803223
170849.61386489868164
170740.36377143859863
170648.18395233154297
170574.62447166442871
170521.55864143371582