/*--------------------------------*- C++ -*----------------------------------*\
  =========                 |
  \\      /  F ield         | OpenFOAM: The Open Source CFD Toolbox
   \\    /   O peration     | Website:  https://openfoam.org
    \\  /    A nd           | Version:  12
     \\/     M anipulation  |
\*---------------------------------------------------------------------------*/
FoamFile
{
    format      ascii;
    class       volScalarField;
    location    "0.00518";
    object      rho_0;
}
// * * * * * * * * * * * * * * * * * * * * * * * * * * * * * * * * * * * * * //

dimensions      [1 -3 0 0 0 0 0];

internalField   nonuniform List<scalar> 
106891
(
1.1476193527670182082
1.1475831845058614977
1.1475603219370584807
1.1475611000919607729
1.1475877925191071416
1.1476418749676311482
1.1477240429825834589
1.1478210021491326298
1.14793821604492563
1.1480467970606162975
1.1481539037149521842
1.1490515042419560121
1.1490878436237512705
1.1490929103368370257
1.1490128238776886604
1.1488285572151577529
1.1485755865188973512
1.148331843602068858
1.148177570675585013
1.148149319469114138
1.1482213001384522499
1.1483283998254549818
1.1484080609125044692
1.1484402971116522973
1.1484438025588263876
1.1484467013059163065
1.1484544173765172115
1.1484406885957691991
1.1483676963362980938
1.14821716863103096
1.148009120072454925
1.1477906417030960817
1.1476102465893753823
1.1474938663754659096
1.1474412895855454764
1.1474354291913959614
1.1474545638818247628
1.1474786220458896846
1.1474898515447513603
1.1474716177088370994
1.147413490451771656
1.1473224335771348148
1.1472234932142917341
1.1471449264954922675
1.1470963651789956028
1.1470565910087739958
1.1469864367271007666
1.1468594592571048629
1.1466843395657955185
1.1473520053006478481
1.1474598203365631299
1.1475641074763101024
1.1476531166666472661
1.1477169341659871904
1.1477500889284870667
1.1477524438932487083
1.1477281381646025071
1.1476856208066541498
1.1476333571682033607
1.1475836034679087749
1.1475443261387612282
1.147526361677578377
1.1475338961590453302
1.1475703334246789566
1.1476389319364399544
1.1477287252633561199
1.1478476596864033432
1.1479670957193461867
1.1480937855618096322
1.1490587514369632327
1.1490856285789343705
1.149004735663982979
1.1488087835228042444
1.1485472577148572171
1.1483078376716455704
1.1481713351875701967
1.1481696260900307038
1.1482691762982413231
1.1483926898618554979
1.1484750399676526555
1.1484981700361791557
1.1484878814364116728
1.1484815036457016735
1.1484913315898832575
1.1484928781329306613
1.148443812452068169
1.1483165360200926486
1.1481199202086074251
1.1478961324506324893
1.1476946991852965407
1.1475493530393670039
1.147469996807162218
1.1474465928192443265
1.1474598273626273048
1.1474888576488522229
1.1475103322919657511
1.1474963084589968609
1.1474242078619867335
1.1472944938163469608
1.1471358264399214022
1.1469899060055392948
1.1468836192951561426
1.1468103076427207387
1.1467365662967170525
1.1466308673417484609
1.1475120457359737625
1.1476011099567029472
1.147682008077240301
1.1477458798077495583
1.1477865463935310597
1.147800906171317914
1.1477902413012728289
1.1477582630798988106
1.1477122965423149914
1.147658445552381723
1.1476062007808882637
1.1475611791700246478
1.1475328522269694353
1.1475256204840753593
1.1475445137647630744
1.1475947506467945036
1.1476683785647063818
1.1477757060048108251
1.147890028915209637
1.1480192751070494861
1.1490014882948553776
1.1490277304655183155
1.1489400659454114262
1.1487465437948369829
1.1485020599180826295
1.1482886507176210955
1.1481767532440940727
1.1481879166057331609
1.1482877217060480923
1.1484012775454355282
1.1484700730102150867
1.1484803032896495623
1.1484585840357324216
1.1484441042121498189
1.1484530489089876948
1.1484667425506824845
1.1484441835944168009
1.1483508829662911754
1.1481842646619573323
1.1479754407123143878
1.1477698839092012051
1.1476061328919593407
1.147501843789573428
1.147455262968055445
1.1474530403333058626
1.1474744884747221096
1.1474918711084447498
1.1474712042738579587
1.1473825352257314147
1.1472180278190857727
1.1470039672131766562
1.1467911989839512099
1.1466270920012640033
1.1465294260186427167
1.1464787551380286601
1.146434734261578825
1.1477415221777915733
1.1477952398804538436
1.1478304970776151972
1.1478456223698005889
1.1478422955650648962
1.1478242636270392651
1.1477951136384108022
1.1477594222328781903
1.1477186579846188064
1.1476777377409943526
1.1476384835884636537
1.1476082579931716765
1.1475916172844715657
1.1475951030316287049
1.1476256811158687121
1.1476777088697640572
1.1477628841775857627
1.147857328036321789
1.1479711169094251044
1.1489121906846500032
1.1488055689641145651
1.1486217807441378991
1.1484151217787970101
1.1482482745413737923
1.1481667210489137076
1.148179797981406125
1.148252814233163166
1.1483328123407381405
1.1483752096861592484
1.1483688819692197125
1.1483371119254439652
1.1483142215751860338
1.1483190631008866056
1.148341498486495027
1.148347889008348055
1.1483022006508181168
1.148187732386825477
1.1480172026836834576
1.1478262505090348622
1.147653836306774755
1.1475257997402343868
1.1474503659390156152
1.1474210650083365159
1.1474195646332336906
1.1474176918628671284
1.1473808856342579965
1.1472763880186789276
1.1470889756283315641
1.1468378505733383133
1.1465774887646777991
1.146374497148650029
1.1462719418233053847
1.1462643928357783007
1.1478150475732189495
1.147853717799734552
1.1478775036067330184
1.147884638371424959
1.1478782159177807198
1.1478639604110725259
1.1478480045282335453
1.1478339242388226893
1.1478233517609672809
1.1478132703048338215
1.1478023798024203916
1.1477871514935360509
1.1477705268287188289
1.1477551741134635055
1.1477477933625104267
1.1477574372417063131
1.1477822731350775243
1.1478355565911475544
1.1478970923748532673
1.1479787661265163923
1.1487448069265677741
1.1486055706721283176
1.1484261885087252431
1.1482602675898760936
1.1481457591919550509
1.1480980971549623604
1.1481081700714266258
1.1481482439367747261
1.1481867789563999782
1.148197676161823777
1.1481748858941989155
1.1481336412167606476
1.1481001851407330872
1.1480963463607956054
1.1481244970669501893
1.1481622265787443382
1.1481724234664574258
1.1481223260050521517
1.1480033484934013543
1.1478371762460579664
1.1476621612406199269
1.1475130379835913885
1.1474086232952185327
1.1473482662418916789
1.1473157205921911128
1.1472850293696146284
1.1472250221616693278
1.1471050924195522747
1.1469087306141045879
1.1466507285925140458
1.1463835158113251378
1.1461794104223868018
1.1460951235080358845
1.1479180966497719574
1.1479091626900030931
1.1478908003813896865
1.1478697372747270755
1.1478542062283090264
1.1478510566092938738
1.1478627473739488885
1.1478877382584280475
1.147918860899413529
1.1479497276604935241
1.1479715794826728104
1.1479823773000885634
1.1479816885342637445
1.1479739415214109677
1.1479680162622583062
1.1479646706561708047
1.1479797947948706671
1.1479987257778494492
1.1480360765964514602
1.148308579166308574
1.1481245033443545633
1.1479813761086314905
1.1479061302598319028
1.1478938297538672231
1.1479182958813873849
1.1479494212938063935
1.1479657402795415688
1.1479567902470408924
1.147922936696120555
1.1478752789563038128
1.1478339585919630217
1.1478224642519920806
1.147854018083641181
1.1479169355731488888
1.1479730124293034965
1.1479767180553592798
1.1479023490386981443
1.1477592023633855778
1.1475849248048908269
1.1474233252570600339
1.1473000850910770598
1.1472160592306919202
1.1471564999641254978
1.1470973240743209676
1.1470118469865866473
1.1468797067254685729
1.1466943157623337157
1.1464700831529279768
1.146247392860409331
1.1460856276009558918
1.1460392413398809985
1.147944010565525641
1.1479037107436105281
1.1478662589889072621
1.1478402144414683317
1.1478337732554420025
1.1478522125154910771
1.1478953314520501383
1.1479585650940868913
1.1480311636021660604
1.1481029954721544417
1.1481618689546304601
1.148201466777680313
1.1482183728544057555
1.1482145682907809459
1.1481981151924012252
1.1481705992013684359
1.148148071456785102
1.1481218747438117767
1.1481095705753192604
1.147740133539106866
1.1475963695038360335
1.1475293306475800037
1.1475345736394086948
1.1475819908596665009
1.1476344061670544772
1.1476636423351327387
1.1476602153581909604
1.1476298022809199306
1.147586755150314719
1.1475506147421368208
1.1475434308259389038
1.1475786995895316256
1.1476476798006567392
1.1477155863935601943
1.1477367888360954229
1.147680786682112597
1.1475513449245295927
1.1473839422400344823
1.1472221104698325789
1.1470951444351500381
1.1470055288182432474
1.1469337094182141534
1.1468551593815845546
1.1467542240582480062
1.146627726867698982
1.1464807079187111505
1.1463260894812608015
1.1461879250513273831
1.1461020676089057613
1.1478911571979075745
1.1478454213824877961
1.1478275511816049548
1.1478423009923888198
1.1478902643386572624
1.147966488143152608
1.1480624705460424906
1.148165460969261531
1.1482637036540868092
1.148344048994275779
1.1483986831957746499
1.1484231398976829652
1.1484182991681013419
1.148391569853744576
1.1483458874145524575
1.1482960106403563572
1.1482367557666635083
1.1481843333993946299
1.1471349125544563208
1.1470464972875604737
1.1470406567761104455
1.1470965025328363485
1.147174563805298364
1.1472388180055685947
1.1472727957706307933
1.1472790045004201964
1.1472712706039245312
1.1472676054536841139
1.147282899977716264
1.1473223672394212702
1.1473753164990398989
1.1474140768126279699
1.1474062768021933145
1.1473341546207604935
1.1472063352801227243
1.1470534422546425635
1.1469105739194815907
1.1467973284116113053
1.1467111830908758296
1.146635268955239928
1.1465544193991104027
1.1464673496755526383
1.1463828252323366996
1.1463087711363630916
1.1462491694551271149
1.1462092646249848471
1.1479156781420964961
1.1478756681505533077
1.1478788400079531495
1.1479237599274711989
1.1480034745856833034
1.1481062192880693296
1.1482193447388733265
1.1483290287269591889
1.1484251182805211844
1.1484978727644741259
1.1485427279458206851
1.1485580703840925221
1.148545396723378742
1.1485115121802851323
1.1484584560508313
1.1483978718690210918
1.148326450416399247
1.1482558960886846133
1.1465438033362314041
1.1465042732201289333
1.1465379938372555202
1.1466137313378017559
1.1467003848047809811
1.1467812417137837055
1.1468546521242504177
1.1469225739719268731
1.1469847494638223395
1.1470367916285604259
1.1470725455023811357
1.147082407726794484
1.1470564943725884977
1.146988831303465961
1.1468824867955160762
1.1467521642965776696
1.1466194329815209141
1.1465027482097804867
1.1464084780991705692
1.1463318667084616553
1.1462659351745250191
1.1462121555451827426
1.1461796108927697624
1.1461747557406796183
1.1461950205351045806
1.1462307263776660982
1.1462730454027514337
1.1480146171227179064
1.1480428147314218901
1.1481122521698927663
1.1482096686592608847
1.1483187581069635996
1.1484238169009677311
1.1485106849345581015
1.1485717363968399596
1.1486046709709762936
1.1486132787018641377
1.148602964173272456
1.1485780187381537942
1.14854369020705116
1.1484989185802567668
1.1484485732199216645
1.1483875969054324617
1.1483208529061332825
1.1462314604345360536
1.1460959508872732293
1.1460175046947409516
1.1459966514489203782
1.1460266849872899897
1.1461023194433725969
1.1462181640675548344
1.1463605487547310346
1.1465051867769000538
1.1466245120022211523
1.1467002191802284639
1.1467250654713365687
1.1467007811021472374
1.1466316183780524973
1.1465252814077546706
1.1463952191847510687
1.1462598837271018581
1.1461377186693029184
1.1460399798651119685
1.1459678230222669626
1.1459177479493085627
1.1458910539170894527
1.1458951671866552946
1.1459363426718744972
1.1460129166446590965
1.1461131473956072124
1.1462168659499973877
1.1483519015749661385
1.1484259332870416781
1.1485125597347578541
1.1485933396718299715
1.1486547742026276264
1.1486885012761973712
1.1486939396756530307
1.1486756222573606401
1.1486421085642868345
1.14860294994688239
1.1485641894184446254
1.1485303439488077082
1.1484983985323782285
1.1484660373004667022
1.1484258596949343811
1.1483749931542772682
1.1460105162405644919
1.1458847971875933958
1.1457812710652075516
1.1457002658300874387
1.1456590284103163047
1.1456812269303326968
1.1457747277210699188
1.1459180401640187696
1.1460702130057192072
1.1461926668779700567
1.1462659799104846226
1.146291029703241815
1.1462765971089774464
1.146228253031377653
1.1461451804394415799
1.1460307254643629093
1.1459001223978027006
1.1457771251458008788
1.145682688204925137
1.1456275978204446542
1.1456135483604024117
1.1456384161672694688
1.145700237889786921
1.14579633960397409
1.1459168434057966923
1.1460406889982424072
1.1461427040714204928
1.146205744243849356
1.1487957524381497976
1.1488332781706622754
1.1488547946234517472
1.1488560768324564965
1.1488354906957054524
1.1487959307033179801
1.1487441706878500636
1.1486888729517954477
1.1486382930561269688
1.1485962084395959781
1.1485637947451352581
1.1485348438658908865
1.1485039181926508522
1.148465687765026777
1.1484153388379869654
1.1458430105328050175
1.1457362439798073339
1.1456182543271571372
1.145518905508997376
1.1454780289760706502
1.1455130321896576095
1.1456053169965301208
1.1457137242066195437
1.1458022772321660998
1.1458586128859395981
1.1458899865631131387
1.1459040352343743407
1.1458973215450216632
1.1458572457332842909
1.1457754753464057806
1.1456616506074981388
1.1455425006909136787
1.1454495703021474462
1.1454060461074677679
1.1454199426891555902
1.1454868658326720077
1.1455952624593832567
1.1457276959025481933
1.1458601834690469445
1.1459663400593158578
1.1460281038726229941
1.1460449434046824368
1.1491101759001502991
1.1490790051336778888
1.1490302932205234132
1.1489682337491446962
1.1488998887210579714
1.148833269044982508
1.1487733657803878007
1.148722270502690268
1.1486790572693332813
1.1486430345158051836
1.1486076184244018439
1.1485665703168241869
1.1485196711492242638
1.1484632004690549234
1.1458049727055497069
1.145669488437893957
1.1455253369457241153
1.1454178472570442082
1.1453733616428356523
1.145384105180390355
1.1454206223453735625
1.1454578162519921669
1.1454906420471044903
1.145528004279045442
1.1455742937925890157
1.1456153530712527289
1.1456256611923492095
1.1455858888536918361
1.1454990912066675968
1.1453925519290266699
1.145304378741376139
1.1452673002653488421
1.1452981910014539135
1.1453941906347178126
1.1455342381734641144
1.1456835042885764597
1.1458039121422105566
1.1458676711884325794
1.1458693545834099936
1.1458304318704264357
1.1492713793236102315
1.149180306356139214
1.1490895217844134812
1.1490082507457899386
1.1489411951412249469
1.1488884438311004477
1.1488458894332067572
1.1488079241037434386
1.1487671544179205441
1.1487197403026969678
1.148664695850614148
1.1486058260681610843
1.1485414294267812796
1.145801723947922568
1.145633865529794404
1.1454757941326936255
1.1453564880710951357
1.145282015218753946
1.1452400047249347015
1.1452185764660187672
1.1452199738681145824
1.1452548242049656047
1.1453233402667797325
1.1454039399226285667
1.1454610703110164049
1.145465648923905233
1.1454128547006665606
1.1453257723088239306
1.1452454471883093401
1.145211255237110759
1.1452467195539899336
1.1453511621780638752
1.1454979557584705763
1.1456411927133332007
1.1457328595456535147
1.1457451080776406283
1.1456855508454726333
1.1455960255015857907
1.1493106871687226445
1.1492076243983879724
1.1491257544015911485
1.1490657344311030474
1.149022075762140549
1.1489885279784668448
1.1489524609285943768
1.1489076768831760766
1.1488526029832066833
1.1487869902138116984
1.148719092775252193
1.1486513476798685396
1.1457842072410227008
1.1456008478890680191
1.1454371733435619873
1.1453017148377324652
1.1451930928733478066
1.1451137564693094628
1.1450754829404636848
1.1450919915859882892
1.1451636480296252252
1.1452667880224991492
1.1453601499175458667
1.1454064878990004583
1.1453913216492663807
1.1453303728834893782
1.1452610669062541771
1.1452258255387555153
1.1452536437916669421
1.1453459836765207402
1.1454739291544759894
1.1455869421113256124
1.1456358993452313566
1.1455972462899162156
1.1454895435240699531
1.145365506751913065
1.1457648027961682136
1.1455837200916396679
1.1454171296600210717
1.1452672105067320807
1.1451418004179598764
1.1450597651790510589
1.1450422217287163917
1.1450950345967898514
1.1451977342265591275
1.145308710179300915
1.1453846255755684158
1.1454021264625937615
1.1453682603405206386
1.1453146935183364796
1.1452819831537979223
1.1452989074890402854
1.1453678629618622153
1.1454611396974867521
1.1455304017197673883
1.1455295866068053723
1.1454431225067822631
1.1452986230046222627
1.1451556339666808526
1.1455963120351777551
1.145430441138701072
1.145274920572682209
1.1451516615167152136
1.1450894335537105118
1.1451043856629925521
1.1451846916943204668
1.1452922017486526496
1.145380946995295357
1.1454209874583782813
1.1454113368306990672
1.1453764371554469026
1.1453508839388835128
1.1453595598213495155
1.145403286756600636
1.1454548176414609539
1.14547234723707958
1.1454214327480116697
1.1452981983908934183
1.1451334509494464076
1.1449831246704664789
1.1452171414587155596
1.1451814969186271398
1.1452199541982153175
1.1453030016159109206
1.1453860473814894139
1.1454343917333504876
1.145440317803213981
1.1454222625601711005
1.1454085370171627201
1.1454172126268404863
1.1454423327794014398
1.1454570063785416423
1.1454269329476007844
1.1453321487099439313
1.1451794048833141559
1.1450053910003539226
1.1448612200154304475
1.1453926143680461802
1.1454339373734232499
1.1454444107957710841
1.1454382704195225084
1.1454383961585741236
1.1454546748281977386
1.1454736217306431545
1.1454649786846160531
1.1454012948371949943
1.14527480906676149
1.1451040917918406947
1.1449300666087414147
1.1447966026198705958
1.1454218139626271
1.1454267287029771261
1.1454275961257192051
1.1454413916617696145
1.1454692617922126452
1.1454908169895845482
1.1454730470912766194
1.1453928423087973432
1.1452517055235384991
1.1450777864053682809
1.1449125253551899473
1.1447929610833875724
1.1455175527543852709
1.146327110935528637
1.1469378979433866306
1.147333676133717173
1.1475741566969461793
1.1477423209144870242
1.1478878862252794857
1.1480200178001873645
1.1481287503292223473
1.1482112474843177985
1.148280190073889262
1.1483411026360208496
1.1483804909015187246
1.148381448824882467
1.1483373976821753537
1.1482712643585946122
1.1482134434238873144
1.1481862842333694363
1.1481970045257261503
1.1482436683439474212
1.1440055377197422271
1.1450227188476092
1.1459493659854789183
1.1466682184836549663
1.1471407352137084068
1.1474272427175729039
1.1476280543716506077
1.1478156554089526953
1.148003710702024005
1.1481679148079975139
1.14828246458142047
1.1483512733770619985
1.1483962621466869969
1.1484280649828670917
1.1484429338840111967
1.1484259333958635185
1.1483756824547006747
1.148308886396506967
1.1482501440243746416
1.1482298779236757014
1.1482704310532683145
1.148371325941863752
1.141795333757111619
1.14255956648916146
1.1435054227061580701
1.1445504580203580414
1.1455427911915825323
1.1463336337298863921
1.1468658248285115153
1.1471954211569908022
1.1474380769357979126
1.1476828125170424055
1.1479452799623712789
1.1481811448024608069
1.148341074136474127
1.1484178968353724315
1.1484485729227793538
1.1484713612583468123
1.1484961409538170241
1.1485043907874481484
1.148470328024729481
1.1483957943850420236
1.1483062252190403552
1.1482525818047026878
1.1482819027075836793
1.1484030697540845711
1.1485685182669935767
1.1487015623240026674
1.1411229756476257702
1.1416342984321259379
1.1423447264698325387
1.1432673152718402232
1.1443204649843290444
1.1453394016752853624
1.1461515473383123709
1.1466864827174725328
1.1470008931304531696
1.1472275795215542971
1.1474748325392238879
1.1477623305617801197
1.1480297173867317628
1.1482066407692324006
1.1482778847743488893
1.1482910221194364553
1.1483086220440019698
1.1483501306696610733
1.1483907779325019938
1.1483800091479514638
1.1483000498545203882
1.1481799828112817519
1.1480890675933095313
1.1480998481419233403
1.1482297315474854216
1.1484221995143841788
1.1485780844918722643
1.1486335963016458539
1.1427931073356305536
1.1430490463035287707
1.1433418166519784265
1.1437620330642535027
1.1443697285778995365
1.1451167354262328235
1.1458506206208296518
1.1463984871727233017
1.1466873912585140438
1.1467851444063303923
1.1468387581060204283
1.1469716573033534868
1.1471977878151793373
1.1474336998631122775
1.1475802124531677695
1.1476098394024112359
1.1475781247010192754
1.1475683806283965005
1.1476131948973602448
1.1476795402420203462
1.147694234502127042
1.1476138667945188221
1.1474675397497775542
1.1473372829275265694
1.147314606635766232
1.1474268597643215717
1.1476122776634740674
1.1477592055720884368
1.1477979132821281016
1.1477533979665273112
1.1453775660407274906
1.1451339284224550941
1.1448174583251080616
1.1445445703053862552
1.1444451602933747303
1.1446102512518911976
1.1450070026821168589
1.1454700516191629323
1.1458078215071616501
1.1459265511800147408
1.1458876497361087932
1.1458420905496120579
1.1459165582541670503
1.1461187549893701032
1.1463445582607487694
1.1464739580270979502
1.1464716400490655435
1.1464037412005196881
1.1463703250703323189
1.1464152681871087047
1.1464938005172100599
1.146514458573934192
1.1464149527518143756
1.1462285241313465711
1.146057838140625007
1.1460125330173651648
1.1461307062951628932
1.146341033405797516
1.1465154904497434352
1.1465699700100298042
1.1465300169647749673
1.1464960545351357002
1.1448642285084711379
1.1444678084664050566
1.1439995269121296939
1.1435935337072298257
1.1433956591769371958
1.1434936462267570878
1.1438563988593801746
1.1443059242947997145
1.1446325002284838401
1.1447307057774582795
1.1446613739481208416
1.1445894994165388692
1.1446525367404043472
1.1448638397329624627
1.1451063522955748919
1.1452459490688779997
1.1452395525367227158
1.1451603431722923165
1.1451202847564221354
1.1451731951225680994
1.145267990163719718
1.145299991518734517
1.1451944512138436671
1.1449854031081152517
1.1447937468363156288
1.1447415368568023553
1.1448719476037967357
1.1451042042538954746
1.1452949871151081318
1.1453496040898718533
1.1452971808534213594
1.1452515855573677239
1.1453099810787779056
1.1439389078266894995
1.144068655097136844
1.1440935416010509229
1.1439119548612464161
1.1436196831176614896
1.1434819929133399619
1.1434932229313059526
1.1430856627232703904
1.1425915213692066086
1.1421547233158662049
1.1419386709296746041
1.1420364144444021814
1.1424148655783414874
1.1428897583025621199
1.1432355365908124512
1.1433418733034172998
1.1432684631866565361
1.1431933271990302181
1.1432636905794499871
1.1434939129890491216
1.1437570682004938316
1.1439084727558226362
1.1439002500184005662
1.1438136034833599197
1.1437728412597896188
1.1438396168532560804
1.1439593375245318274
1.1440119028158093339
1.1439140748033622685
1.1436975450601269966
1.143497412443349015
1.1434476942313775982
1.1435935460792374663
1.1438485549899093385
1.1440569207155537601
1.1441178871943276096
1.1440621720269132933
1.1440148981324678168
1.1440799722254384463
1.1442634070944641689
1.1446065395577393886
1.144652007585262643
1.1447218104379570658
1.1446942205471810627
1.1444511835189712379
1.1440743496141203561
1.1438529515896951327
1.1420758950104541452
1.141671824907749988
1.141176931890056867
1.140730770683637374
1.1405155220314955322
1.1406250547135030615
1.1410191120188815095
1.1415134201998016206
1.1418740910151186085
1.1419869377634226382
1.1419122451646823713
1.1418356448322186658
1.1419110176268540968
1.1421507655127498548
1.1424267915088197611
1.1425877790517153798
1.1425838835871473531
1.1424978610973135495
1.142459979853473806
1.1425337156011468043
1.1426643219328993517
1.142724125611986663
1.1426279214013077556
1.1424066438097000287
1.1422020253419666869
1.1421554265207793932
1.1423087720864648631
1.142574432131886697
1.1427897540835103563
1.1428517702051486093
1.1427917433509799938
1.142741001741768514
1.1428075196670075542
1.1429959898945727392
1.14321441039379601
1.1476730430084136625
1.1477986882910722333
1.1479197392351576656
1.1480212663563660325
1.1480886568411459159
1.1481169075433979021
1.1481126558765746282
1.1480775064423169862
1.1480365866725616986
1.1479862367641746612
1.1479527850489921192
1.1488578792875379087
1.1488057885361253607
1.1487391864143281506
1.1486573964245032631
1.1485505194532930062
1.1484216362555519364
1.1482917279489281981
1.1481897933461395755
1.1481249483850657356
1.1480764849812974404
1.148006105114858233
1.1478906524939043177
1.1477458533887667791
1.1476236658210343666
1.1475788800602260142
1.1476340526928723307
1.1477608714163951564
1.1478958666242355946
1.147972551173682465
1.147952089486264704
1.1478340949882055444
1.1476493249926014162
1.1474419327915905686
1.1472614785876908972
1.147149458108820852
1.1471245178341693549
1.1471758230208182194
1.1472647233321355831
1.1473428028017362834
1.147374904761064629
1.1473486245471362643
1.147271551569150283
1.1471617185564821906
1.1470394435600372862
1.1469224574306182696
1.1468196808576360812
1.1473605821957408857
1.1474223822418809782
1.1474553273630048178
1.1474636159992677165
1.1474564729001919261
1.1474464113362565776
1.1474475004068889206
1.1474725912181964471
1.1475293441257570226
1.1476198484220661022
1.1477355760930281203
1.1478647078877446397
1.1479885385623349592
1.1480930028617677419
1.1481640880443206854
1.1481967458767947665
1.1481964281721270815
1.1481636571834112903
1.1481232018770473058
1.1480702881925128889
1.1480333034227612199
1.1487896778462738379
1.1486485392886143231
1.1485282455218848163
1.1484273121761578995
1.1483276236846586826
1.1482159876094517603
1.1481084235151539641
1.1480335676226265385
1.1480057708532644956
1.1480068980423527858
1.147994343927988492
1.1479356288083597537
1.1478286165729802981
1.1477068517463842046
1.147623945383290156
1.1476149125681120999
1.1476742754151980641
1.147761929476788012
1.1478282939093327197
1.1478332146900127597
1.1477608750635301949
1.1476218403467739471
1.1474496723338889481
1.1472917215375362243
1.1471919813482334138
1.1471745150234200494
1.1472286724702374094
1.1473120584261393695
1.1473735462857801437
1.1473774701986168001
1.1473160711250409705
1.1472071537789174656
1.1470793130822138917
1.1469572460969201799
1.146854743788097819
1.1467720253469986247
1.1475139435122956311
1.1475289059563420491
1.1475276268637644161
1.1475140047013085987
1.1474955141498988098
1.147482418098975554
1.1474855052577177528
1.1475144920050670549
1.1475738526278620455
1.1476637075176308045
1.1477757046596241963
1.1478986868120877318
1.1480156991548622347
1.1481149468857707596
1.1481839336360786241
1.1482183834048733662
1.1482231194763254933
1.1481973884223921623
1.1481646468520954052
1.1481177635485111388
1.1480848822952098853
1.1484293957016649124
1.148276929670780433
1.1481779074841522714
1.1481016419201204304
1.1480219371152733387
1.147943568451881946
1.1478905643081764865
1.1478860678692244246
1.1479229231268841538
1.1479635150353821871
1.1479620743838023778
1.1478967850507850734
1.1477829990812471461
1.147662132768485499
1.1475788158292592467
1.1475565414466339931
1.1475896155112010888
1.1476479220568907014
1.1476876391892951723
1.147671702879046185
1.1475873501551645539
1.1474550140199604176
1.1473204880862273303
1.1472328647735896556
1.1472189121478406637
1.147267137670078041
1.1473341067504185808
1.1473692298863957806
1.1473401448202904529
1.147245056170752564
1.1471089060856103359
1.1469667999725745577
1.1468463355109452806
1.1467589399770177216
1.1476603328989372077
1.1476213562620747322
1.1475832242698065233
1.1475514215473063828
1.1475321832012401746
1.1475317544913623546
1.1475556695095969761
1.1476057171063751561
1.1476810524747347309
1.1477743842988197276
1.1478773989924906385
1.1479761480626469172
1.1480618467075935918
1.148124508145945688
1.1481605986495011518
1.1481736606122507904
1.1481613667414534152
1.1481446936725336894
1.148114020183373496
1.1480959502984571241
1.148170540315986532
1.148020578893562238
1.1479453364911995639
1.1479067340621211812
1.147866835474041558
1.1478140058631878251
1.147771429034895041
1.1477697621338751599
1.1478139507852014312
1.1478821237110805598
1.1479268271783518163
1.1479088334414511152
1.1478201999498756081
1.1476848321255193053
1.1475486369461840308
1.1474589629574079019
1.147440357963637636
1.1474813955557687795
1.1475394905765561315
1.1475640395252793002
1.1475251347753201436
1.1474321457605554109
1.1473247927196636997
1.1472478584519321121
1.147226697976343468
1.1472535535167533993
1.1472913909124700105
1.1472964363357562867
1.1472426496585044209
1.1471317892427819185
1.1469886163832199166
1.146847607424704707
1.1467372284745496192
1.1466694481848433984
1.1478481488255329879
1.1477736208760378478
1.1477072036426967383
1.1476538621900322923
1.1476175203570293526
1.147601043645857688
1.147606382720706808
1.1476335977782887721
1.1476810949424609554
1.1477427231356993609
1.1478131484069853396
1.1478830151081260702
1.1479468438202740099
1.1479977281370765674
1.1480333347731870308
1.1480561727041640463
1.1480623724713479028
1.1480691494872004021
1.1480641134692455285
1.148070313309223156
1.147812031839336111
1.1477662709587030943
1.1477548478269363752
1.1477396837209585811
1.1477039782883828867
1.1476621227681937931
1.147644075789591156
1.147673346643680814
1.1477389096099930299
1.1478061984453853395
1.1478336215233984063
1.1477910203289465318
1.1476795158334205382
1.1475345516558297376
1.1474093240426683771
1.1473454572366044157
1.1473509438539986061
1.1473948272156637707
1.1474280016427833573
1.1474144386558897679
1.1473504537687515548
1.1472620236151487294
1.1471865818566240325
1.1471480997419305492
1.1471442305799612882
1.1471496893317085775
1.1471336790974886455
1.1470771374253736496
1.1469808593236299199
1.1468634516289557546
1.1467505525782177855
1.1466656142621027836
1.1479881150234194642
1.1478911552202299973
1.1478067598900207891
1.1477392186448069911
1.1476914525808998846
1.1476649321738601195
1.1476583822439447857
1.1476701670411053602
1.1476951520658769113
1.1477299870241732815
1.147768417095606841
1.1478081667081272421
1.1478454136790283702
1.1478791741051510567