# Forces                    
# CofR                      : (0.00000000000000000000e+00 0.00000000000000000000e+00 0.00000000000000000000e+00)
# Time                      forces(pressure viscous)	moments(pressure viscous)
0.012                       	((-8.33356833221327287441e-16 1.53391034930284404254e+04 -2.42743596703697796701e-14) (4.82757304991322633292e-01 -5.46864896366350185936e-03 -1.09584090486245476492e-06)) ((5.00166930881107418827e-02 6.44185126670930628745e-15 1.51365221427681717614e+00) (3.21764483788718170208e-07 -1.67047041590238226627e-05 -4.63178160172109595893e-02))
