/*--------------------------------*- C++ -*----------------------------------*\
  =========                 |
  \\      /  F ield         | OpenFOAM: The Open Source CFD Toolbox
   \\    /   O peration     | Website:  https://openfoam.org
    \\  /    A nd           | Version:  12
     \\/     M anipulation  |
\*---------------------------------------------------------------------------*/
FoamFile
{
    format      ascii;
    class       volScalarField;
    location    "0.00512";
    object      alphat;
}
// * * * * * * * * * * * * * * * * * * * * * * * * * * * * * * * * * * * * * //

dimensions      [1 -1 -1 0 0 0 0];

internalField   nonuniform List<scalar> 
106891
(
7.307083835933583419e-06
7.2997281327900781861e-06
7.2907888073105361351e-06
7.2834251613923428167e-06
7.2745546021309123819e-06
7.2673013860539073115e-06
7.2583817837119942151e-06
7.2512690590490203656e-06
7.2422236303613157153e-06
7.2351844120813392868e-06
7.2251627131804752269e-06
1.1114364744630415979e-05
1.1095177283607676635e-05
1.1073555621438085447e-05
1.1053276798534421483e-05
1.1033226307942149152e-05
1.1014574455810251968e-05
1.0996346844980395911e-05
1.0979327985793068732e-05
1.0962143956393722341e-05
1.0946026843133830321e-05
1.0930195074400464155e-05
1.091604406427572525e-05
1.0902610275883970912e-05
1.0890906065485042901e-05
1.0879435268844042924e-05
1.0869193453133871777e-05
1.085869807112487658e-05
1.0848871640939288435e-05
1.0838267112529647351e-05
1.082770090708220763e-05
1.0815969997641307048e-05
1.0804125604440107891e-05
1.0791596755352675217e-05
1.0779679614219892563e-05
1.0767147693825079445e-05
1.0754889381835778904e-05
1.0741894261329964071e-05
1.072928447484848998e-05
1.0716126587145014342e-05
1.0703909264368463417e-05
1.0691756276034157513e-05
1.0680741847932563734e-05
1.0669537498818000416e-05
1.0658879363750939942e-05
1.0647440476590120002e-05
1.0636351403614307609e-05
1.0623942319350077797e-05
1.061107394405819822e-05
7.7681243467723341855e-06
7.7581013472459345429e-06
7.7498748236053024004e-06
7.7400082579596106121e-06
7.7320332182594960066e-06
7.7224282608136221362e-06
7.7146848763668506027e-06
7.7052215924425221095e-06
7.697565958911625319e-06
7.6881074688230878684e-06
7.6803965754275086943e-06
7.6709247466368886127e-06
7.663205384925689915e-06
7.6537298058305578384e-06
7.6460353693340647291e-06
7.6363871124904677607e-06
7.6287702473655157685e-06
7.6189271337426192762e-06
7.611266314493028091e-06
7.6001530815048782674e-06
1.1678036834274932744e-05
1.1655096736490297855e-05
1.1632810755838205995e-05
1.1612272571323755795e-05
1.1592239237275853728e-05
1.1573768602312841744e-05
1.1555328484954254317e-05
1.1537947505545455287e-05
1.1520368279016465979e-05
1.1504190648515383831e-05
1.1488811882072847928e-05
1.1475671847443536235e-05
1.1463253721625018994e-05
1.1452385856489963003e-05
1.1441284488737900056e-05
1.1430804475343870103e-05
1.1419518054005975977e-05
1.1408418204593454446e-05
1.1396300480304911209e-05
1.1384074722336690917e-05
1.1371027721164969968e-05
1.1358565622721035943e-05
1.1345586363660724696e-05
1.1333071637749516047e-05
1.1319775728432284603e-05
1.13068393180922474e-05
1.1293067763415650482e-05
1.1279984971310024443e-05
1.1266655560213007398e-05
1.1254519167211856658e-05
1.1242451717246708951e-05
1.1231335247737373522e-05
1.1219646565167695103e-05
1.1208587075302198856e-05
1.1196515891243875626e-05
1.1184333876459770615e-05
8.1747798951977522085e-06
8.1639199777166701621e-06
8.1550807975395258654e-06
8.1444488096085015103e-06
8.1359369358913735795e-06
8.1256909987298482005e-06
8.1175677309275693093e-06
8.1075755651311464046e-06
8.0996123067394503256e-06
8.0896968571444002232e-06
8.0817389524995960281e-06
8.0717673420303617522e-06
8.0637005866254836297e-06
8.0536075787095243736e-06
8.045442598883560209e-06
8.0350221730891265091e-06
8.0268179689669134349e-06
8.0160470805722771568e-06
8.0076837280988468978e-06
7.9953757871617647389e-06
1.2321591604562997751e-05
1.2293686657501955021e-05
1.2266851221013144475e-05
1.2242427400018213073e-05
1.2218951116399869375e-05
1.2197265842551157202e-05
1.2175913652054855274e-05
1.2155994716332152168e-05
1.2136356052339396569e-05
1.2118560657559134295e-05
1.2102025334640778011e-05
1.2088168048712264792e-05
1.2075178493321777481e-05
1.2063680143508177285e-05
1.2051507768382708073e-05
1.2039583932498296404e-05
1.2026479136318949924e-05
1.2013605169753081812e-05
1.1999998020216529895e-05
1.1986835371707755144e-05
1.1973210411852814534e-05
1.1960281316492938508e-05
1.1946643526131592308e-05
1.1933340260187590362e-05
1.1919150712200812125e-05
1.1905313532026242488e-05
1.1890725714132338977e-05
1.1876961228966910475e-05
1.1863032764559111644e-05
1.1850247673381644341e-05
1.1837402623039585488e-05
1.18253984312899862e-05
1.1812751237077797264e-05
1.180079376052981061e-05
1.1787917733593215386e-05
1.1775084948056938571e-05
8.5911341291735268005e-06
8.5816843621542668888e-06
8.5702909384535563679e-06
8.5613149695075134183e-06
8.5504552634989385615e-06
8.5420126625105788587e-06
8.5316005752646518963e-06
8.5234889470198667722e-06
8.5132146428914069259e-06
8.5050182447425552414e-06
8.4945738090696296249e-06
8.4861405734329105522e-06
8.4753462105799724617e-06
8.4665811892004730251e-06
8.4552597916354082304e-06
8.4463422259468338548e-06
8.4345267452316705195e-06
8.4253693468735385357e-06
8.4117881866788958513e-06
1.2943232498154788447e-05
1.2914816844025615237e-05
1.2888009007452252337e-05
1.2863500839812609458e-05
1.283952574706068564e-05
1.2817267750896950494e-05
1.2795428340093414416e-05
1.2775457731044618305e-05
1.2756589630902794656e-05
1.2740522316653458271e-05
1.2725882293121945247e-05
1.2713586745404068819e-05
1.2701100118943709942e-05
1.2688776344415382538e-05
1.2674698901357512381e-05
1.2660370924057860747e-05
1.264528972155961959e-05
1.2631188556572639872e-05
1.2617306420433919186e-05
1.2604565553306129851e-05
1.259114360525735161e-05
1.2577882422596070076e-05
1.2563318432443321382e-05
1.2548876387057175821e-05
1.2533472048282358197e-05
1.2518882097709001591e-05
1.2504093073252929146e-05
1.2490444281790411224e-05
1.2476591509460517959e-05
1.2463534438760672817e-05
1.2449718666709746003e-05
1.2436573909400154222e-05
1.2422538875027644355e-05
1.2409023241822209836e-05
9.0531842545617758017e-06
9.040617476261875239e-06
9.0306611805087415339e-06
9.0185790351439894681e-06
9.0092369394201269906e-06
8.9978616790890251489e-06
8.9892206714464121652e-06
8.9784644919908935878e-06
8.9702266223190352875e-06
8.9596440710359608251e-06
8.9512809158171069272e-06
8.9403301902673204348e-06
8.9313885175575894078e-06
8.9197602333125041026e-06
8.9102538662383078409e-06
8.8978996447066278669e-06
8.8881334898631472312e-06
8.8751667786670220759e-06
8.865132622413294489e-06
8.8502445484691976069e-06
1.3631827433717958215e-05
1.3601667736561275795e-05
1.3574687109164395075e-05
1.354861947473710786e-05
1.3524420716402664035e-05
1.3500526750754217201e-05
1.3478443382611891117e-05
1.3457152599589807874e-05
1.3438328730233107253e-05
1.3420793776889457206e-05
1.3406150661165003001e-05
1.3392250700296830812e-05
1.3379410218436390287e-05
1.3364955256616520816e-05
1.3349572021048131899e-05
1.3332390816967033974e-05
1.3315749334355572432e-05
1.3299859335568958705e-05
1.3286318824609446825e-05
1.3273066931935162941e-05
1.3260358842347568653e-05
1.3245944061933026431e-05
1.3231102757409756411e-05
1.3214709438262924548e-05
1.3198960887607477907e-05
1.3183020279532231677e-05
1.3168389703545520998e-05
1.3153659240314863644e-05
1.3139893233557693784e-05
1.3125242579333861961e-05
1.3110976146656522527e-05
1.3095376979558388304e-05
1.3080139835436309324e-05
9.5136528877878261422e-06
9.5032420038056891911e-06
9.4905756632782703838e-06
9.4809587895145867604e-06
9.4691357916203597561e-06
9.4603093267131484087e-06
9.4491801734366430074e-06
9.4407936908190538341e-06
9.4298068235047238398e-06
9.42113465003710217e-06
9.4095093117058425843e-06
9.3999735443135575767e-06
9.3873796837705723384e-06
9.3770024905667621298e-06
9.3634706735424670383e-06
9.3527699008653416961e-06
9.3386506756389092839e-06
9.3277184345402158283e-06
9.3117196798435085007e-06
1.4314607455720313183e-05
1.4287254709053162665e-05
1.4261003093914533446e-05
1.4236866251803243551e-05
1.4213287452342042647e-05
1.4191587960243190938e-05
1.417060498236889214e-05
1.4151827379360721766e-05
1.4133821978086007719e-05
1.4118310410972790512e-05
1.4103318653114940611e-05
1.4089526181466789217e-05
1.4074054928099360818e-05
1.405753230381876455e-05
1.4038972534888116871e-05
1.4021046244704116177e-05
1.40041612976304426e-05
1.3990019931118977082e-05
1.397633491069663645e-05
1.3963099121035269469e-05
1.3947804191426948817e-05
1.3931791634782316348e-05
1.3914158001095071107e-05
1.3897312602099210946e-05
1.3880605971966299725e-05
1.3865502844610463635e-05
1.3850319366606686849e-05
1.3835869472599550425e-05
1.3820246789341286987e-05
1.3804812871813165338e-05
1.3787784581874043365e-05
1.3770896657547825962e-05
1.0011969026823998844e-05
1.0001221426048015402e-05
9.9880213027358864521e-06
9.9781671561335545434e-06
9.9658975711470816926e-06
9.9568348479890159933e-06
9.9451425540173919899e-06
9.9363323554683039793e-06
9.9245057383235749229e-06
9.9151502724841254755e-06
9.9025235967546759643e-06
9.8921927579756453801e-06
9.878493048200512745e-06
9.8672272250834760756e-06
9.8525107105591935755e-06
9.8408708742599782296e-06
9.8256622905440839984e-06
9.8139138615661910804e-06
9.7971875530552460703e-06
1.5067196989882007267e-05
1.5038522464399196733e-05
1.5011399639946041814e-05
1.4986917576192766748e-05
1.4963365759970166709e-05
1.4941787349657019302e-05
1.4920392870331970934e-05
1.4900958311194741562e-05
1.4881852071851288516e-05
1.4864736391338671445e-05
1.4847574747319283909e-05
1.4830977264338951745e-05
1.4812594708828247589e-05
1.4793635077363656856e-05
1.4773977112932202435e-05
1.4756188083851360789e-05
1.4739272582242123017e-05
1.4724175386632729228e-05
1.4708096220289554079e-05
1.4691785009384760301e-05
1.467349307796809722e-05
1.4655480608362304447e-05
1.4637179800684986872e-05
1.4620384717690588675e-05
1.4603537734247101432e-05
1.4587793774505663401e-05
1.4571208128377571056e-05
1.4555198272326378393e-05
1.4537717401169077594e-05
1.4520316145495729563e-05
1.0526587378404860462e-05
1.0512948890498438091e-05
1.050279225615971094e-05
1.0489874225471174917e-05
1.048026564101544865e-05
1.046763476501238125e-05
1.0457979365640821161e-05
1.0444904236456831396e-05
1.0434507381427774711e-05
1.0420571192693790625e-05
1.0409227575220300545e-05
1.0394274526405725262e-05
1.0382140008374248332e-05
1.0366406748394319979e-05
1.0354024408448506397e-05
1.0338005530042444294e-05
1.0325677757574161047e-05
1.0308421932158518612e-05
1.5842892418326450513e-05
1.5817491311940974933e-05
1.5793304092594725622e-05
1.5771366394944622322e-05
1.5749173861416485958e-05
1.5728209289633169574e-05
1.5706319550144888221e-05
1.5685751957260465938e-05
1.5665305091324030452e-05
1.5646806068077827339e-05
1.5628205341861363403e-05
1.5610225810313435525e-05
1.5591037694751790061e-05
1.5572047834058724613e-05
1.5552030941876579821e-05
1.5533434964067109146e-05
1.5514676873794312924e-05
1.5497288675039958298e-05
1.5478888734152636335e-05
1.5461200773364930204e-05
1.5442954209357621979e-05
1.5425705421665277081e-05
1.5407409958092460405e-05
1.5389578858865088481e-05
1.5370593457215793649e-05
1.5352636326377479422e-05
1.5334029285497454288e-05
1.5316420800260427556e-05
1.1089707559780563617e-05
1.1075923640919093754e-05
1.1065336932216530733e-05
1.1051804799261207964e-05
1.1041362040400554484e-05
1.1027658560955410727e-05
1.1016835071782603362e-05
1.1002447509985466262e-05
1.099082148990284416e-05
1.0975680209766033198e-05
1.0963339977274292339e-05
1.094746374433314694e-05
1.0934743311834945557e-05
1.0918512007299421683e-05
1.0905822401338232213e-05
1.0889603744085841626e-05
1.0877137033063127234e-05
1.0860212885769091363e-05
1.6629811773024159752e-05
1.6606194046351788169e-05
1.6584197565850637842e-05
1.6561831166033259762e-05
1.6540348105718598364e-05
1.6517800058704177089e-05
1.6496163075548439135e-05
1.6474396017702289027e-05
1.6454742029508027571e-05
1.6435813894444849042e-05
1.6418504997823378527e-05
1.6400544677696810914e-05
1.6382163469148733033e-05
1.6361647984009438246e-05
1.634139933346842442e-05
1.6320991158778437255e-05
1.6303026699497894425e-05
1.6286002206429208713e-05
1.6270784945436338913e-05
1.6254968561086376183e-05
1.6238834212199450291e-05
1.6220163586128344109e-05
1.6200566323933817688e-05
1.6179118040909067132e-05
1.6158515751161965857e-05
1.6137799269173606697e-05
1.611894240126694828e-05
1.163451693909345726e-05
1.1619858562048111203e-05
1.1606392919358072801e-05
1.1591274026202229855e-05
1.1577101595326633315e-05
1.1561401190881627723e-05
1.1546602261816822841e-05
1.1530266474817924338e-05
1.1514941374809132475e-05
1.1498227406508116405e-05
1.148256691159139746e-05
1.1466009077332051097e-05
1.1450335923895883303e-05
1.1434047265837695212e-05
1.1418570328737014563e-05
1.1402439154421361439e-05
1.1387046699550488072e-05
1.7199047143891559361e-05
1.7173514491789157867e-05
1.7149946567199931912e-05
1.7126355151784718943e-05
1.7103793555611168214e-05
1.7080737450890469544e-05
1.7058847257292609069e-05
1.703664823714310964e-05
1.701619510268814994e-05
1.6996322163602948802e-05
1.697879489273072142e-05
1.6961677184003773518e-05
1.6945420577618102809e-05
1.6927341968459126904e-05
1.6908711803945349896e-05
1.6888344210406073327e-05
1.6869582732715154003e-05
1.6851919563973695172e-05
1.6837382895035025906e-05
1.6823675756397865036e-05
1.6810538919717669487e-05
1.6794401591555019223e-05
1.6776054004730029534e-05
1.6754079666491698348e-05
1.6731262884013819179e-05
1.6707567482792824021e-05
1.6685812271158182259e-05
1.1956998501370514658e-05
1.1942835579118459913e-05
1.1922871467353467442e-05
1.1907932436999887115e-05
1.1887289278679815044e-05
1.1871966970534402659e-05
1.1851010829512180405e-05
1.1835531293715769444e-05
1.181449681669356457e-05
1.1799391642958975994e-05
1.17786111116847274e-05
1.1763958706853986521e-05
1.1743486763591648952e-05
1.172914404340703984e-05
1.1705873353436278109e-05
1.1699983621643595522e-05
1.3490691305630825642e-05
1.3472193421104629015e-05
1.3454416236096346094e-05
1.3437933990539067405e-05
1.3421300365251357122e-05
1.3405312936650413437e-05
1.3389262171838646435e-05
1.3374790439976285921e-05
1.3361074610988548308e-05
1.3349374108451786335e-05
1.3337852801533029378e-05
1.3327635977527605441e-05
1.3316699282991599932e-05
1.3305994674345415917e-05
1.3293697674097975576e-05
1.3281776863139210787e-05
1.3269311880914917614e-05
1.3258654930899661209e-05
1.3248760858245117142e-05
1.3240241999194914436e-05
1.3230793635616299811e-05
1.3220400745189462779e-05
1.3206880592121860547e-05
1.319190849489732083e-05
1.3175163280963419796e-05
1.3158531302650238113e-05
1.3141673106380684938e-05
1.3126031529688361342e-05
9.2819548828186233011e-06
9.2659467295476509306e-06
9.2539163013351728216e-06
9.2373810120990020646e-06
9.2252224874765137761e-06
9.2087188034925464237e-06
9.1967587088598166972e-06
9.1804916020527721124e-06
9.1689859659580540027e-06
9.1529962055507890713e-06
9.1418151157728245624e-06
9.1260299924758088051e-06
9.1149838155115734095e-06
9.0969088728400348534e-06
9.0950333495084932672e-06
1.2744188330138863123e-05
1.2724003653750308641e-05
1.2705284212905352905e-05
1.2686407736645557157e-05
1.2668570968110185289e-05
1.2650917903320749047e-05
1.2635220875089616275e-05
1.2620480671528515942e-05
1.2607857222503143565e-05
1.2595237950932533237e-05
1.2583427792480355456e-05
1.2570883617141805563e-05
1.2558858372917626711e-05
1.2545997241918574491e-05
1.2533833979643041874e-05
1.252104942180061181e-05
1.2509378608887564683e-05
1.2497600593016660637e-05
1.2486671357341476662e-05
1.2474814125245638571e-05
1.2462531978441067276e-05
1.2447998335123533478e-05
1.2432685196993055997e-05
1.2415814380090648469e-05
1.239904341551946481e-05
1.2381624146590065481e-05
1.2364983390040135258e-05
8.8210901263737804905e-06
8.810303235645593412e-06
8.7958228811185490561e-06
8.7850940998319894826e-06
8.7708975727013655579e-06
8.7605797611524762939e-06
8.7467107382301230027e-06
8.7367439710301578458e-06
8.7229914859874757609e-06
8.7130937970938638563e-06
8.699318996547312626e-06
8.6893980944207003495e-06
8.6738946348950401191e-06
8.6674390546319422888e-06
1.2248829560082489167e-05
1.223046085230653182e-05
1.2211929535468794633e-05
1.2194553382170382984e-05
1.217756207537975521e-05
1.2162696983858604471e-05
1.2148896985546370368e-05
1.213707649798585571e-05
1.2125042946347228126e-05
1.2113511491748918167e-05
1.2101194087180444815e-05
1.2089563845671373005e-05
1.2077514257416577931e-05
1.2066310972094592809e-05
1.2054249103439595344e-05
1.20425337852536986e-05
1.2029867463936732926e-05
1.2017502369740979494e-05
1.2004263749221641517e-05
1.1991027329601978247e-05
1.1976242981274075038e-05
1.196140477872548935e-05
1.1945532730333037426e-05
1.1929895485308484682e-05
1.1913323408433870745e-05
1.1896995711463170304e-05
8.4818532889910285629e-06
8.4682057199910698136e-06
8.4581827892056391698e-06
8.4448666171415677446e-06
8.4353313592770715539e-06
8.4224549487589939163e-06
8.41323547892402266e-06
8.4004483353098740532e-06
8.3911386930033149422e-06
8.3781279442840516785e-06
8.3686413893584032665e-06
8.3541960203344432887e-06
8.3473004370340527348e-06
1.1768986506399508452e-05
1.1751047190548374313e-05
1.1734430689555898071e-05
1.171852377529583734e-05
1.1704852982222542089e-05
1.1692147601188757506e-05
1.1681113738651681237e-05
1.1669649224113208376e-05
1.1658568427019845549e-05
1.1646717851757679735e-05
1.1635617700827075445e-05
1.1624210518690242762e-05
1.1613545402482725784e-05
1.1601726990282785438e-05
1.1589643980410256009e-05
1.157606183277114604e-05
1.1562474311255272364e-05
1.1548119002884276693e-05
1.1534189609940951468e-05
1.1519400480836873877e-05
1.1505210295770339354e-05
1.1490568202335786941e-05
1.1476373395699771275e-05
1.1461205445001765863e-05
1.1445931110529525564e-05
8.1447451479196741777e-06
8.1353259795662764278e-06
8.1227003740701894338e-06
8.113710653598451143e-06
8.1015566182862552478e-06
8.092863665685248663e-06
8.0807555922587529445e-06
8.0718798140709623041e-06
8.0594548289686538739e-06
8.0503230572021011318e-06
8.0364250094570041579e-06
8.0297788353506082819e-06
1.1309972702782204859e-05
1.1294023308640415402e-05
1.1279118928899180724e-05
1.1266461426170346037e-05
1.1254611115643101693e-05
1.1244189300662545358e-05
1.1233237193462695139e-05
1.1222613033474366484e-05
1.1211201186421539689e-05
1.1200481104150542973e-05
1.1189366906907255282e-05
1.1178777667190047091e-05
1.1166831916827182425e-05
1.1154339076621024181e-05
1.1140167502664213313e-05
1.1125945641147880446e-05
1.1111129222416674702e-05
1.1097056481715791143e-05
1.1082523509890924318e-05
1.1068946901214403314e-05
1.1055316597246428795e-05
1.1042462969868170204e-05
1.1028819899102516026e-05
1.1014973360747213845e-05
1.0866079363091814798e-05
1.085255322303501667e-05
1.0841121371312040133e-05
1.083028691486902791e-05
1.0820622580563830404e-05
1.0810346604892758049e-05
1.0800398761004749337e-05
1.0789634493101763889e-05
1.077934310475042963e-05
1.0768354340308923146e-05
1.0757619589823688659e-05
1.0745516120847626611e-05
1.0732922195127549947e-05
1.0718777913187220121e-05
1.0704635799551661461e-05
1.0689938071773583819e-05
1.0676043983947124214e-05
1.0661861111446742543e-05
1.0648815857887316814e-05
1.0635947796477709056e-05
1.0624036767153525904e-05
1.0611546568720208724e-05
1.0598959461825269163e-05
1.0433214555030602324e-05
1.0422387237166609388e-05
1.0412824074452056765e-05
1.0402851953949963172e-05
1.0393262615113566468e-05
1.038278028812375109e-05
1.0372563855674094523e-05
1.0361441099492438406e-05
1.0350395066376347466e-05
1.0338046682583051415e-05
1.0325400730612074651e-05
1.0311528290877552602e-05
1.02978374450627195e-05
1.0283598318496203053e-05
1.027005340654589908e-05
1.0256217088149553298e-05
1.0243580588479743316e-05
1.0231273497674771522e-05
1.0220065023773897218e-05
1.0208518665756685041e-05
1.0197111051133801263e-05
9.9977529702708215143e-06
9.9877221463660035438e-06
9.9776947191368688746e-06
9.9665306902415335007e-06
9.9552856607840851336e-06
9.9428580258601117835e-06
9.9303561642409491614e-06
9.9169286256479995248e-06
9.9038504266833553812e-06
9.8902714269772400082e-06
9.8772990443088813542e-06
9.8639600601292863288e-06
9.8517205603136860415e-06
9.8398310050246723022e-06
9.8291720301233671998e-06
9.8185007673096413871e-06
9.8082757312142060803e-06
9.5801332308420824907e-06
9.5675253543387197387e-06
9.5550703293160191504e-06
9.5419958285325660158e-06
9.5294430039427536116e-06
9.5164282371609590236e-06
9.5039312990268864174e-06
9.4909857741687269684e-06
9.4790075958462764673e-06
9.4673155104830007515e-06
9.4568890742502245467e-06
9.4467012575666458972e-06
9.4372430942601618085e-06
9.2050943468567253311e-06
9.1930000305981469407e-06
9.1804636669542814429e-06
9.1686040343950500251e-06
9.1563664207630452531e-06
9.1445331542866588792e-06
9.1321236276702279873e-06
9.1204822650234015132e-06
9.1090365037946383601e-06
9.098825208189788733e-06
9.0889853971904824629e-06
9.0800302087095601211e-06
5.0675027986085418869e-06
5.0542454983403932252e-06
5.0490113455485777458e-06
5.0472688778538257417e-06
5.0525378409129121567e-06
5.0813375466670973046e-06
5.1279077566584048873e-06
5.1618236828021152172e-06
5.1819564595817331501e-06
5.1897598106388885344e-06
5.1891987432588723321e-06
5.1847007371951023049e-06
5.1750544685063853227e-06
5.1522226453054759414e-06
5.1317720487914218175e-06
5.1206584779609597152e-06
5.1155096575834711997e-06
5.1129836383679156927e-06
5.1186415198816164013e-06
5.150827299018820135e-06
6.8537333865723282009e-06
6.8506756855400276576e-06
6.8488463616338952201e-06
6.8493988814903487294e-06
6.8517887711345488687e-06
6.8536808926102421916e-06
6.8572644142930050601e-06
6.8615835963680653337e-06
6.8639624751350324967e-06
6.8632868989342329908e-06
6.8593556884069155894e-06
6.8516480107299611952e-06
6.8303160961193321249e-06
6.7681901255568897738e-06
6.6870801640829562244e-06
6.6242037629694435272e-06
6.5807317306989453911e-06
6.554116199246421006e-06
6.5403494880873407766e-06
6.5330869284757201574e-06
6.5282657073508055138e-06
6.5300968780726562223e-06
1.1079075177997231791e-05
1.1042147072823041786e-05
1.1017053614857143579e-05
1.0999019222276117192e-05
1.0985130938163192193e-05
1.0975741234812758687e-05
1.0967891098396584376e-05
1.0960754628503953582e-05
1.0956695575245505085e-05
1.0957410030698222462e-05
1.0955668388558029627e-05
1.0950128589791770651e-05
1.0939559608988527533e-05
1.0911367516020816418e-05
1.0826614678502517451e-05
1.0694732186795320673e-05
1.0579030047803190628e-05
1.0486622284541520495e-05
1.0420278878019820391e-05
1.0377571848153456022e-05
1.0351449730906818529e-05
1.033559707547924644e-05
1.0323554187180958929e-05
1.0312836451468715795e-05
1.0302321297030944748e-05
1.0291797760362866165e-05
2.3705942431643762592e-05
2.3689888443005829784e-05
2.3679272722572232125e-05
2.3673374615020375514e-05
2.3670823007925355266e-05
2.3668218935336827314e-05
2.3664815233810182439e-05
2.3657708296935254084e-05
2.3646783396605425932e-05
2.3633573562469663461e-05
2.3615963727153157906e-05
2.3593874395094228957e-05
2.3549663325159388594e-05
2.3451183654705294086e-05
2.3328335316874968631e-05
2.3205199357866012705e-05
2.3088650334457530089e-05
2.2991958232252396706e-05
2.2921167980153569956e-05
2.2873728941713711559e-05
2.2843617473380451924e-05
2.2822959890405803996e-05
2.2803344524383433183e-05
2.2782886712747254252e-05
2.2758991074896081804e-05
2.273317326831971968e-05
2.2705367886549538976e-05
2.2681201180475285686e-05
5.7067685256659813947e-05
5.7026024899730646189e-05
5.698509733262064578e-05
5.6943921490590735399e-05
5.6904290495310561992e-05
5.6866966744847620777e-05
5.6831580248686323843e-05
5.67962013828086931e-05
5.6757649566309620803e-05
5.6710894664843603701e-05
5.6656714407769562746e-05
5.6587911356461060393e-05
5.6479278467760087284e-05
5.6339150471053955666e-05
5.618867421873222003e-05
5.6035035413248594977e-05
5.5890247773679606921e-05
5.576726440861349681e-05
5.5670199472107106465e-05
5.5598526046792143892e-05
5.5545757687351436204e-05
5.5496959987143562479e-05
5.5441808873022998107e-05
5.5378840418655265326e-05
5.5305016187656473668e-05
5.5230143301678132279e-05
5.5151254157693122427e-05
5.507466994420621184e-05
5.4993921398963623991e-05
5.4909573306775593955e-05
9.8508996462307063004e-05
9.8349685342663265768e-05
9.8175168372907753228e-05
9.7986857404657506303e-05
9.7796371526535498899e-05
9.7617015332914460119e-05
9.7452711083326594779e-05
9.7296580285939144239e-05
9.7135326582269566464e-05
9.6960332993157780611e-05
9.6773213349912962176e-05
9.6585417133263271852e-05
9.6409117823457416308e-05
9.625048291061689867e-05
9.610437082195194818e-05
9.5960045211491068256e-05
9.5809611588821934607e-05
9.5654459871260662739e-05
9.5501115582625724712e-05
9.5354940731881142509e-05
9.521425997626337687e-05
9.5072678388049484781e-05
9.4921420194143024847e-05
9.4756179546956240231e-05
9.4575406553273219331e-05
9.4383216487375288704e-05
9.4186609266502411631e-05
9.399597110394401398e-05
9.3816663504305003582e-05
9.3651645979222426287e-05
9.349644533054907614e-05
9.3349015626930336017e-05
0.0001264344682685729815
0.00012621602214691872456
0.00012598149665746656263
0.00012573509273118148614
0.00012549745035899255202
0.00012528884738736276367
0.00012511324082195874881
0.00012495348650119032048
0.00012478387640640954963
0.00012458713658504720536
0.00012436482099145593433
0.00012413461930561373709
0.00012391632108554585757
0.00012371798196118954775
0.00012352973055888803191
0.00012333324541833427519
0.00012311766153472116121
0.00012288780454336882043
0.00012265808416948606832
0.00012244097967609136272
0.0001222385796367705653
0.00012204308141138132243
0.00012184313568145435864
0.00012163042864463280846
0.00012140125788178215711
0.00012115884815965900962
0.00012091225124794798072
0.00012067240939694720981
0.00012044562391275266883
0.00012023222033658253994
0.00012002662556818575936
0.00011982557347386717445
0.00011962594028561246797
0.00016179904009181565066
0.00016104076176725058678
0.00016033378084182893768
0.00015969176400747487894
0.00015910025931546611824
0.00015852644809594490451
0.00014102259691563522612
0.00014079748905939333862
0.00014054967048423815655
0.00014028565961586223192
0.00014003264626331424301
0.00013981521179279169428
0.0001396365528097112587
0.00013947361444049290852
0.00013929310181665953742
0.00013907481243104105172
0.00013882300865009945812
0.00013856119361047028395
0.00013831421778045057845
0.00013809127832795133344
0.00013788012051574687869
0.00013765849012112256326
0.00013741447145300915563
0.00013715553528071731753
0.00013689977961923703868
0.00013666089653126105036
0.00013644058045702821551
0.00013622886070496973668
0.00013601178567007330745
0.00013577877732615521223
0.0001355254846999052131
0.00013525549529256995643
0.00013498018244916074482
0.00013471255661078761949
0.00013446082846644712063
0.00013422432322189400034
0.0001339977797303699091
0.00013377589867505812905
0.00013356030710040469201
0.00013334941495024248809
0.0001538338083614321835
0.00015314920093848662769
0.00015250005761951969038
0.00015189764848202216277
0.00015134742862420681926
0.00015082412851103612727
0.00015029629352169746569
0.00013133987118490693998
0.00013114193428558648755
0.00013092060210101054266
0.00013069310367031373825
0.00013048884290135179947
0.00013032080859373245665
0.0001301746299811156588
0.00013001581812007527417
0.00012981371041004705828
0.00012956297215951771305
0.00012928499719088893554
0.00012901061184098145708
0.00012876025559710745126
0.00012853191914126779619
0.00012830582047873036579
0.0001280610263727936576
0.00012779514963656232892
0.0001275250794378944097
0.00012727176972287534431
0.00012704490422401300601
0.00012683822470752157286
0.00012663636645337828781
0.00012642531778012604899
0.0001261993580706602966
0.0001259636180563915883
0.00012573006844150165636
0.00012551501634062959428
0.00012533082413830634008
0.00012518103512371243024
0.00012505863418383930783
0.00012495262134730857149
0.00012485497126325185361
0.0001247633528799068389
0.00012467727213721403485
0.00012459216906212899055
6.1109544051524891266e-08
6.1100012205248181505e-08
6.1107809678113523167e-08
6.1105611119791061942e-08
6.1129726861493881643e-08
6.1143768210024254769e-08
6.117436494696302169e-08
6.1247383111343505408e-08
6.1273384065272410664e-08
6.1434473123530134884e-08
6.1526034529292421518e-08
4.0387916638275203988e-07
3.7084598955881084668e-07
3.397362269915156632e-07
3.1075446364167821655e-07
2.8401443577253158966e-07
2.595880777230897093e-07
2.3752616246497403559e-07
2.1783938288547877219e-07
2.0049581386001323163e-07
1.8542412141953896121e-07
1.7252059833134654148e-07
1.6165933585808739173e-07
1.5268295023983247751e-07
1.4538575590621830274e-07
1.3951505688805875667e-07
1.3480377252045085865e-07
1.3098808988385210625e-07
1.2783634462984799318e-07
1.2516842551224153972e-07
1.228987779193190625e-07
1.20964587383017905e-07
1.1933286444068451814e-07
1.1794853794654299419e-07
1.1678807543570008374e-07
1.1577833390389304787e-07
1.148710639039765109e-07
1.140099314665666727e-07
1.1325190889949850984e-07
1.1262102003776438776e-07
1.121610598943543982e-07
1.1174973262598257244e-07
1.1124988509174360759e-07
1.1050295790577897996e-07
1.0954758373408742213e-07
1.0848048278848898535e-07
1.0747344176286946121e-07
6.4508440354487079197e-08
6.448505371399243865e-08
6.4451400923817259164e-08
6.4409599759860703956e-08
6.4362328306837158609e-08
6.4318349546633376932e-08
6.4280530280085956808e-08
6.424493174479488441e-08
6.4211968942425581964e-08
6.4171296782073660732e-08
6.4120988148744628617e-08
6.4062904655533573133e-08
6.4018562247046541009e-08
6.397790379175458225e-08
6.3967550658928465759e-08
6.396068936340418277e-08
6.3975830156421675621e-08
6.4029105284773437254e-08
6.4046776747969160931e-08
6.4190784759599777345e-08
6.4243771778558624342e-08
4.25277411116910279e-07
3.897235301346470228e-07
3.5636640372723240133e-07