/*--------------------------------*- C++ -*----------------------------------*\
  =========                 |
  \\      /  F ield         | OpenFOAM: The Open Source CFD Toolbox
   \\    /   O peration     | Website:  https://openfoam.org
    \\  /    A nd           | Version:  12
     \\/     M anipulation  |
\*---------------------------------------------------------------------------*/
FoamFile
{
    format      ascii;
    class       volScalarField;
    location    "0.00512";
    object      k;
}
// * * * * * * * * * * * * * * * * * * * * * * * * * * * * * * * * * * * * * //

dimensions      [0 2 -2 0 0 0 0];

internalField   nonuniform List<scalar> 
106891
(
0.012275593940232927548
0.01226848363285360996
0.012256213250861344027
0.012249268477534614938
0.012237290864159902984
0.012230612047267807804
0.012218295192262784363
0.012211875007203751992
0.012198905800024377813
0.012192623548262003161
0.012176258627372701232
0.017786655915373362352
0.017747003343539766856
0.017698511360781217505
0.017654539806151697823
0.017612324871447437163
0.017575993962815648214
0.017542564181258653994
0.017514493447944999571
0.01748711558964365434
0.017463678730354158936
0.017440704252501118554
0.017421685275790604885
0.017403031675499520264
0.017388109497326133951
0.017372652012178902564
0.017360374287323520476
0.017346936351075727817
0.017335655800162861478
0.017322401821922055881
0.017310331289905230012
0.017295886685187198545
0.017282195105647695649
0.017266788119037496801
0.01725326058003505067
0.017237664050366308111
0.017223283274234030271
0.017207275357984677666
0.017193016036244870154
0.017176594865319892019
0.017161736284178705225
0.017145112478643427523
0.017130470962074675206
0.017114343509660186193
0.017099815592376173268
0.017083045108451724858
0.017068013406230313211
0.017050060808339335267
0.017032889002433666825
0.013004265499612796542
0.012989781938266723588
0.012981048682146969359
0.012966565962880085769
0.012958184127432532604
0.012944145600555749878
0.01293618673963663028
0.012922346503001377882
0.01291458092215438079
0.012900837224312676141
0.012893083923531809681
0.012879567636537848224
0.012872020461360699287
0.012858672770190126763
0.012851247818702856915
0.012837321833218430511
0.012830145157877054576
0.012815568172465083285
0.012808366952296658045
0.012789594340517211266
0.018681263907684132752
0.018630573944503823342
0.018581775088685543312
0.01853912755093861664
0.018499184322658138169
0.018465694038946857403
0.018434002118155212724
0.018407246554231388586
0.018380592723951712231
0.018357739088426010959
0.018335369895522590777
0.018317423987052629947
0.018299467118057646808
0.018285260464781950135
0.018270214961876720533
0.018257701338339947517
0.018243391838862269005
0.018230501310333737525
0.018215237895496779602
0.018200575684601264653
0.018184033498116581457
0.018169648458515940542
0.018153489223090443772
0.018138791331915479071
0.018122127458838635516
0.018107573313303305246
0.018091042341856107545
0.018076466858351947914
0.018059773691673206009
0.018044986693432379932
0.018028634355360447644
0.018014140836734408857
0.017997253096333327982
0.017982329168022025134
0.017964724690444088678
0.017948295080258327289
0.01367267522392806231
0.013656543289688823431
0.013646869655971656174
0.01363089834240411094
0.013621705889122825289
0.013606359765745945981
0.013597790100974175426
0.013582719106222976638
0.01357430931144486784
0.013559379465695606953
0.013551127623368878702
0.013536327974086711373
0.013528101471319277718
0.013513319724838513194
0.013505115220617558772
0.013489560298050221054
0.013481495264282151308
0.01346503895373296622
0.013456832048911673491
0.013435533929136002015
0.019761342941923155242
0.019697145854262462089
0.019635388976327404487
0.019581310878366252337
0.019531075068251288473
0.019488100982875417727
0.019448131834989789563
0.019414433825308684278
0.019382229944429459068
0.019354760534671347494
0.019328518963061876168
0.019307399564607714143
0.019286456643661555044
0.019269595199767401011
0.019251728337774262623
0.01923660038109676132
0.019219341589089580097
0.019203629463627226726
0.019185720250645868501
0.019169124204880681056
0.019151014852055791432
0.019135235140175267665
0.019117470057859600047
0.019101285062899191897
0.019083085773108788424
0.01906702918146346154
0.019049171489674290858
0.019033619754406524982
0.019016330100942356596
0.019001028368365893012
0.018983893129450330611
0.018968239568436080777
0.018949853517778243034
0.018933554243745109175
0.018914874135633672619
0.018897871154432061003
0.014358091614810171432
0.014347601554941993157
0.014330187275196653099
0.014320347187203576189
0.014303650009014623468
0.014294467252939200771
0.014278223357673676744
0.014269435253865276475
0.014253380979588082048
0.014244461056822194447
0.014228381388885052647
0.014219424041019621333
0.014203063513687374034
0.014193857250253115801
0.014176508171103762226
0.014167444014968898908
0.014148992522485743031
0.014139726336387435299
0.014115861968559653
0.02074833517245589648
0.020683063467093393273
0.020622176246416552836
0.020569279704475904036
0.02051976248845769138
0.020477802487736122133
0.020438775869302185095
0.020405946454265147527
0.020374951991019553399
0.020349523509272899463
0.020324793769090833406
0.020305035096966142505
0.020284820251176987477
0.020267744289241405864
0.020248605080927729177
0.020231236457168559617
0.020212035275450627309
0.020194776649758966469
0.020176440955867534777
0.020160649613959327059
0.020142811539762064954
0.020126634903728988363
0.02010782546689385622
0.020090731002330382976
0.020071303123254832096
0.020054522937198948629
0.02003640970902981211
0.02002068681076066281
0.020002916022917704986
0.019986576508888759945
0.01996710760724776379
0.019949453034049758476
0.019929073522231503107
0.019911010678774328231
0.015114924275077582308
0.015095642530090973982
0.015084649867289199113
0.015065984386902596046
0.015055734871837160929
0.015037822837973075646
0.015028199714168601758
0.015010809419945011015
0.015001423560086482242
0.014984170321891580879
0.014974676580444080953
0.014957173948880615397
0.014947149662835156406
0.014929007652203066941
0.014918635096470171664
0.014899380721587128854
0.014889173432025389759
0.014868655699297544936
0.014858296273698218606
0.014831928989478744899
0.021869899597581919648
0.021800570123771394193
0.021739867358119537022
0.0216824888081587272
0.021632799016768879119
0.021586073063080433998
0.021546439906272918385
0.021509196982370665241
0.021477922468594420197
0.021447369160587030634
0.021422375164745544041
0.021397595194467104035
0.021376967738175402939
0.021354861590691880113
0.021334593024267406447
0.021311951959214762292
0.021291314576105932477
0.021270499480723559921
0.021253693399229348082
0.021235604689793671773
0.021219525127554043215
0.021200262795327169674
0.021182402192313761619
0.021161390668690355232
0.021142708960133153179
0.021122523246370896594
0.02110516348254422303
0.021086049184121845312
0.02106891912911352735
0.021048525383241908915
0.021029610038119143922
0.021007032252490863422
0.020986363152609432969
0.015871431761258898013
0.015859913166081922309
0.015840104154590386315
0.015829508331860673437
0.015810472163642941973
0.015800395975749170763
0.015781767587450055979
0.015771814071726314443
0.015753202807946710406
0.015742868976599006664
0.015723652064526451311
0.015712561054155013696
0.015692502970070333623
0.015680842251726136855
0.015659479838824458264
0.01564807669041595739
0.015625669919066595415
0.015614232218813120859
0.015586031931134535986
0.022942516190779176782
0.022881560821658167293
0.022824180302439392443
0.022774911923311630391
0.022728871305951671433
0.022689651461683026795
0.022652539547611396514
0.022621111468185083754
0.02258977739381605454
0.0225637349536229187
0.022537640809796317953
0.02251606236286554652
0.022492690209018829234
0.022471006318979996896
0.022446570133954440313
0.022424444770514188885
0.02240245943448668578
0.022384770790566752702
0.022365689117863084973
0.022348453401517406891
0.022327566796068419597
0.022307793029543804275
0.022284802409954184571
0.022264151366463955789
0.022242143394485672236
0.022223060429738702298
0.022202142836686502431
0.0221831010056193767
0.022160781933684436246
0.022140206711835690168
0.02211609708208090927
0.022093986114876191379
0.016688303437861026768
0.016676202304683043764
0.01665508810049154062
0.016644071745296400849
0.01662387065790391083
0.01661332539951528367
0.016593255951411752663
0.016582497294134145721
0.016561924842383037026
0.016550391344626842055
0.016529183480504278103
0.016517015284602604847
0.016495027019291421538
0.016482261119878129779
0.016458873727521670244
0.016446237174709631146
0.016422013369460634891
0.016409567702523265159
0.016380566674091309731
0.024174591089157169976
0.024110365085285658665
0.024051487953475645526
0.024001684282399845388
0.02395524213906662786
0.023915302358887849388
0.023875921917967373592
0.02384233521018268992
0.023808788323039689616
0.023780470974951870705
0.023751883964982005437
0.023727059152343535353
0.023700219141407567747
0.023674862609299983374
0.023648044252986291647
0.023625021563165343741
0.023601192586398429818
0.023580556570158828916
0.023556655590805108957
0.023534079724782438342
0.023507766446217007172
0.023483695534491384055
0.023458169664902505519
0.023435768575711404815
0.023411466020349373796
0.023389748702267957464
0.023365392753947240162
0.02334382281285639002
0.023319151508968648245
0.023296670283523515654
0.017537752670532570642
0.017515221921807034439
0.0175035409600839513
0.017481830686403264374
0.017470440157409328902
0.017448592089395646015
0.017436739803258920894
0.017414071266232344914
0.017401336045701199656
0.017378117636633605425
0.017364861315240943257
0.017340820063850265198
0.017327055999630778388
0.017301938713502204581
0.017288289369479275387
0.017262659531542583896
0.017249457844776036608
0.017219787612144345917
0.02541299692687881695
0.025360114299140697897
0.025310873841039468329
0.025268937566097077196
0.025226993030676377744
0.025190670556888734855
0.025153214310290328282
0.025120699079480536542
0.025087725830400850469
0.025059490614065510483
0.025030234290300837352
0.025003986865445460702
0.024976223609349625099
0.024951278770135219831
0.024923611151959373933
0.024899165405980104582
0.024871980100390440882
0.024847460629183568126
0.024818965003912556166
0.024792575704941040293
0.024764478327568305305
0.024739983023590872424
0.024712894353294993094
0.024688119505158191008
0.024660206916737103383
0.024635870125872341013
0.024609641549704065061
0.024587096442800177726
0.018478511178060406245
0.01845544277186271856
0.018442797806856141285
0.018420176211877508504
0.018407877800829520326
0.018385019465359975221
0.0183723787669659612
0.018348698502140662475
0.018335181356812248893
0.018310943604893135245
0.018296904339860982358
0.018271782879540864053
0.018257568652120064606
0.018231853697394242303
0.018217954030633001089
0.018192225892960912914
0.018179032424838613424
0.018150892677757001631
0.026615404735427988098
0.026569188096410914501
0.026528710451140816162
0.026488758674720246089
0.026454381767786194768
0.026419432970944501521
0.026388890898975784355
0.026357105256309076857
0.02632922870706712673
0.026300520762222098781
0.026275658752376307437
0.026250217930579362868
0.026226941795823546094
0.026200109753754141639
0.026175165909451177798
0.026147765443720848155
0.026123921787820830742
0.026098351858068330467
0.026075540526788707624
0.026050762031961386539
0.026027764345175917471
0.026000968193752204555
0.025975387909450097651
0.025946504625952996476
0.025920714552686009019
0.025893166394393752477
0.025869649789198541356
0.019335904944657002907
0.019310774520250088837
0.019290374413030567102
0.019265337174709799145
0.019244349211974001723
0.019219152097561559289
0.019197755912671095324
0.019171900991182176666
0.019149893601994906478
0.019123475175622343947
0.019100586710589416428
0.019074494887822712047
0.019051091910584690148
0.019025324167525406449
0.019002029616345436636
0.018976481265973319662
0.018953296044319469654
0.026996925044707898583
0.026947862778542500811
0.026905186377506013634
0.026863836216078591096
0.026828109091485832088
0.026793681752620545494
0.026765186619693927955
0.026736287589067053022
0.026711141541453580633
0.026684332231878608171
0.026661258063307848726
0.02663762062712755202
0.026617743275920296292
0.026595527617049495583
0.02657526713426333273
0.02655113582943884748
0.026530120057833866953
0.026507514175846291771
0.026488757479338233963
0.026468568865869037537
0.02645026216598142868
0.026427014771942428789
0.026403904650199743614
0.026376146706121709334
0.026349599815303208217
0.026320406654986180928
0.02629478804620986529
0.019424823166149123022
0.019404280643164063119
0.01936616516158110729
0.019345515015661552544
0.019307208341085284331
0.019286761434872980864
0.019248236014040024516
0.019227431956527332724
0.019188211266933884874
0.019167786790904854655
0.019128351469184338984
0.019108328806345234452
0.019068975486157518917
0.019049216836458621877
0.019000358523766937985
0.01900780988634159438
0.021908666487501705922
0.021874551814914832554
0.021843428665935766403
0.021818191253962813253
0.021794801864563877886
0.021775668024570461745
0.0217573508216191841
0.021743445468359608175
0.021729659491986744874
0.021719379565217002137
0.021707209170617674382
0.021698376851807393839
0.021688058212222298404
0.021680467450791982009
0.021669652375133990896
0.021660837889778541271
0.021649090120717088409
0.021640270237019969268
0.021630363631800937629
0.021622545152999401302
0.021611943154297909298
0.021601591387828678742
0.021586302825042189002
0.021571380635282057237
0.021553813141481411447
0.021537249912427745835
0.0215186843357424544
0.021502099515007460501
0.015473233481443922355
0.015441767313276321891
0.015424364092281435401
0.01539241598290240487
0.015375195732382961056
0.015343313105451323805
0.015326214626634750496
0.01529429610003122178
0.015277830542541436312
0.015246060742401824559
0.015230049245037343558
0.015198527072021506684
0.01518263475377040414
0.015143250336140706008
0.015157645197552742367
0.020339379692434617769
0.020300561363333503861
0.02026831840454957831
0.020237752513311332153
0.02021210524103160891
0.020187228212511214992
0.020167058788180852041
0.020147262030216127326
0.020131557509319709248
0.02011425284856047449
0.020099299869520564216
0.020082763790117873909
0.020068952979519206342
0.020053269991928239502
0.020040003124106534754
0.020024132552655896783
0.020010461518723491464
0.01999479007530948968
0.019980874349839777837
0.01996466447786759274
0.019949450801375237519
0.019930381311001950373
0.01991206306207680618
0.019890871957963247862
0.019870686175948268359
0.019848146387682973069
0.019827550043509060279
0.014551985685378472646
0.014537835525103891612
0.014511654022658417376
0.014497670537405105487
0.014471807726093978072
0.014458254122507716022
0.014432532222237288988
0.014419400733183927385
0.014393627140839228284
0.014380557058802081669
0.014354736283484664447
0.014341616516013074023
0.014310038657856034156
0.01430809212546893007
0.019551661202030834463
0.019520302434230332039
0.01949035818226598285
0.019465033780192434604
0.019440264631063183115
0.019420123982164461812
0.019400705997392412444
0.019385589277292936822
0.019369050597870987596
0.019354406488064329617
0.019337854776266781565
0.019323837560771814359
0.019308472312573553981
0.019295706775690035784
0.019280173558829862002
0.019265792192073399186
0.019248462012680902372
0.01923241412215444951
0.019214397823741072996
0.019197857935313228372
0.019178087779431956389
0.019159507733288186349
0.019138366947516419897
0.019118306514750705444
0.019095651133206048566
0.01907453842586541784
0.014010537921632712846
0.013985792215768502386
0.013972622208114238163
0.013948002566203546865
0.013935339176547585291
0.013911258918107400132
0.013899117717448426085
0.013875269626771132361
0.013863118452953258897
0.01383899441726500236
0.013826630370219378935
0.013797883928387103675
0.013793822948387598343
0.018787762540933363592
0.018758840538275461246
0.018734301909855279739
0.018710561902925981065
0.018691440942249719359
0.018672985701495725674
0.018658578231082446897
0.018642841225998175309
0.018629040308580136626
0.018613249718117581138
0.01859971947522556443
0.018584799877622595193
0.018572213539634362112
0.018556572185648927131
0.018541209652706790861
0.018522251593599763086
0.018504305129141980502
0.018484783791920752355
0.018467374483570091898
0.018447656614994336483
0.01842978477384760172
0.018410017356147473366
0.018391433861201109123
0.018370269531231372961
0.018350167673866400742
0.013451400095573820201
0.013438862284305633926
0.013415116079581936026
0.013402867804743458235
0.013379869320310351991
0.013368295932595050321
0.013345699216858729688
0.013334148375999266972
0.013311265577021036063
0.01329946002587101446
0.013271920947923676604
0.013268067019052929081
0.018063626787315701511
0.018039439126919964984
0.018016518616112274509
0.01799810236296190552
0.01798017322935437784
0.017966077915433042306
0.017950836177492889706
0.017937628407946284992
0.017922389349907995315
0.017909142842647676752
0.017894305229737585833
0.01788148702973311327
0.017865546738512372293
0.01784954738497026086
0.017829767737790023358
0.017810994204844155658
0.017791055759387750662
0.017773813135893913595
0.017754841368606187613
0.017738005899970252233
0.017719688004560151667
0.017702950373410464291
0.017683928546607753651
0.017665688329145105839
0.017357905132422121741
0.017337444463652797177
0.01732095514384483434
0.017304490513866635504
0.017291343960834659049
0.017277011955824986972
0.017264814433976986147
0.017250650678317790143
0.017238112250855835983
0.017223495080928227785
0.017210507397969376092
0.017194711550424724572
0.017179169403756820722
0.017160147337545623991
0.017142044135803981286
0.017122609662296416067
0.017105805395499475152
0.017087571744427348941
0.017071747190966910651
0.017054756165422541025
0.017039357890573255533
0.017021717642670117221
0.017004690336232981818
0.016675061453509006093
0.01665732798836722095
0.01664324282907135924
0.016628626446755067486
0.016616369071635717081
0.016602127751973696362
0.016589325386785671451
0.016574378122611834602
0.01656097930981124608
0.016545178503111913904
0.016530090149712881736
0.016512147321091370095
0.016495237340733884951
0.016476682040976849825
0.016460282849563238894
0.016442476628296343044
0.016427323050227617823
0.01641135941252201344
0.016397002082631343539
0.016380466025681779396
0.01636457407095680272
0.015982135014055123129
0.015968495337046237359
0.015955913404206132494
0.015940972846549387315
0.015927450575890404055
0.015911955386258828937
0.015897591831920718924
0.015880833874622513752
0.015865134800670685489
0.015847614708706488779
0.015831926965483196501
0.015814776383871163162
0.015800186902796942157
0.015784894173871275719
0.015771328443803175889
0.015756011513287464937
0.015741621550824171777
0.015335497667993771426
0.01531954107504448874
0.015305091897709403176
0.015288768927737726375
0.015273644108136389883
0.015256592090150712659
0.015241101011235724111
0.015224091169837528081
0.015209473393887028292
0.015194074132630391166
0.015180383390866981561
0.015165328526111590546
0.015151594234442301509
0.014745923278457691991
0.014731845271813688233
0.014716098039475968007
0.014701804107351322884
0.014685778472369046682
0.014671021535635275085
0.014654517138322453035
0.014639989216820265688
0.014624548945940079106
0.014610713897115889387
0.01459574809713436519
0.014582355618013922993
0.0082748443523992017828
0.0082383300658673917077
0.0082293560626242826667
0.0082331563863656063301
0.0082610419745505377087
0.0083669354169325620835
0.0085333438221189810563
0.0086588692392625676852
0.0087386101224428830436
0.0087772607882411791957
0.0087884861959718757474
0.0087872728955697386455
0.0087690910412394212914
0.0087060308764457354502
0.0086503445613567483269
0.0086260837124322083808
0.0086225335521061298449
0.0086288769138021630123
0.0086639117355866660658
0.0087900051497459621985
0.015726959859499633348
0.015719893077973841333
0.015720995600772329215
0.015736395335606320756
0.015764459900421939897
0.015793980119411125951
0.015833499232085202629
0.015876641125985125474
0.015909835487640855423
0.0159282484715754305
0.015932349221434882747
0.015921011719503320309
0.01584868053130921231
0.015588949860952548351
0.01524225563961048753
0.014979827766586900975
0.014805941442687485174
0.014709200229159166001
0.01467211755521748498
0.014666428758442080424
0.014673518079637714803
0.014711552405377302175
0.042714994616784289494
0.042439050488704985198
0.042256300290715635704
0.042129654387763275369
0.042040187832313592742
0.041995911187750027682
0.041977345782802086283
0.04197679317367594698
0.042006239318820352835
0.042072435052022252866
0.042116433079270057527
0.042129699597855368998
0.042107960432109972637
0.041958298373672826831
0.041382590155225912332
0.040451012985821079015
0.039645589299748817957
0.0390154606634630155
0.03858007340218230774
0.038322750801649492491
0.038193360510774133909
0.03814600984677535972
0.038132116651369257765
0.038131060201184910352
0.038131402230776725859
0.038128515140023772068
0.20325104780919303615
0.20301606134184482788
0.20288739045663090055
0.20283296928332908426
0.20283037871860740142
0.20284749989635683654
0.20290926319136518008
0.2029877590517215058
0.20307154593884685356
0.20315080999668902462
0.20314896718806260689
0.20304672348617172628
0.20255550731885338389
0.20115374365944341251
0.19937273300576224822
0.19762131321768930392
0.19598837031914950746
0.19467339787267426421
0.19377184594355992275
0.19325326446466151165
0.19303705559384340407
0.19300839518758639013
0.193031571074493008
0.19306992892492055858
0.19306520468367904808
0.19302442956418675024
0.1929301098560879113
0.19287117883350546332
1.2204348589390805468
1.2193258327572729094
1.2185502999873472074
1.2178438766773038715
1.2170614769640764052
1.2162083202508304769
1.2154516227471550138
1.2149828586588382606
1.2148330817722416963
1.2147258303512666888
1.2144553353360449943
1.2134577915014392868
1.2105493114565402113
1.2061945467908934404
1.2015219424687006988
1.1969580812410989257
1.19294337023450292
1.1898450550899044575
1.1876847465595896658
1.1864205272526517909
1.185887764380234799
1.1856060771866634429
1.1852546471136866657
1.1848140659912569372
1.184106858904613313
1.183435049888826196
1.182527150432962415
1.1815468657432557364
1.1801877350817080448
1.1785077641678789462
3.7667905475934948534
3.7591248770914145183
3.7511805217550930891
3.7427950278425545783
3.7339659246798126979
3.7248951133829835136
3.715834424606292874
3.7070228703163072836
3.698504666648911865
3.6902737274311698812
3.6822853387524148161
3.6746335248869796963
3.6674130693574644724
3.6607840347329045905
3.6547765418678399563
3.6493025825222908942
3.644155988926051748
3.639180303424786711
3.6342526364235521186
3.6292933292568254622
3.6241216857945923735
3.6186200689851735213
3.6126262802909692162
3.6061881440819631983
3.5993257709981607562
3.5921900847539212087
3.5849093082827345746
3.5778082026927728876
3.5709917300901881099
3.5646619893562134784
3.5586448368390870556
3.5529405052415943267
6.457624547813461291
6.4440611410482908639
6.430371329731435992
6.4164896660822492436
6.4027880418414628849
6.3898038102923502279
6.3778421585911289071
6.3667164462536334213
6.3558752868387795587
6.3447811935166695818
6.3332521212391839072
6.3215662792942417525
6.3101701906752616367
6.2993286791396716495
6.2888617276380207599
6.2783121490453313029
6.2673115186351413541
6.255847065482930347
6.2442086987301488321
6.2327630335828914099
6.2216241111495209637
6.2106735747528887259
6.1996876642784632949
6.1885159464700381093
6.1770467708488805414
6.1653262969797486548
6.153515271700751299
6.1418641380028731191
6.1304818264662221949
6.119404694043727666
6.1083974584009306241
6.0974076851618406181
6.0861392112338270621
10.299953214094690779
10.21299695933732643
10.131745253963508446
10.056547024224096631
9.9865658646820687494
9.9197936519632055052
8.369526169816673189
8.3541133522760997465
8.3381678422029690267
8.3217591466825169277
8.3056026314402799926
8.2904685051078637059
8.2766120307133466127
8.2635079336966690278
8.2501618761528430213
8.23585661530843538
8.2205891180090340242
8.2049841651876658233
8.1898178054210024612
8.1754614693417710924
8.1616161286638533312
8.1476110331808087039
8.1330066951590520574
8.1179507230660234995
8.102935428136738949
8.0883558214803006337
8.0743274279988010989
8.0606111879288881994
8.0468373172605094368
8.0327066555712125506
8.018057089199832177
8.0029296026401066655
7.9876109255928087194
7.9724467130610552346
7.9577105189318153577
7.9433689969070195858
7.9292859177854877473
7.9152154205559046574
7.9013516694315448774
7.8873646272556143799
9.6563129552123285748
9.5807362632925041623
9.5094413158004122977
9.4431569750204680247
9.3813303463014392491
9.3218260719065870745
9.2627630026987528566
7.5647723354941343032
7.5520899587474472625
7.5387222369681881062
7.526016663646994509
7.514983047317346454
7.505150815856998392
7.4947538459728741955
7.4818698890338577456
7.465768138561642786
7.4473308588732223257
7.4285215486525455475
7.4108967100542955109
7.3948029145304019494
7.3793767208615683728
7.3633842634094612833
7.3462331245361571774
7.32852783368812144
7.3115397965012798309
7.2961753983265733581
7.2824296397671632874
7.2695145849001132632
7.2564973426523886602
7.2429294919428670596
7.2290320715744522673
7.2157219586764984598
7.2040294562802191791
7.1948571085425161442
7.1885216279936718919
7.1848051123215386227
7.1829675926388700802
7.182218453321969065
7.1819867138212858393
7.1819910490912359791
7.1820116986033379902
7.1816247145574827471
8.5864338956492447127e-07
8.5985185892974653855e-07
8.6151120176038571732e-07
8.6283551044903967454e-07
8.6485220282453311747e-07
8.6652197128836999379e-07
8.6860652631461185096e-07
8.7184774860384020453e-07
8.7370907544297227722e-07
8.7938983616211170584e-07
8.8310724564774418341e-07
2.3530561805417061138e-05
1.987003269501984602e-05
1.6700602401448107063e-05
1.3991557205792144034e-05
1.1701662370871534008e-05
9.786988412197279434e-06
8.204067337149924339e-06
6.9095567713932120495e-06
5.8615073225426370481e-06
5.020924691139682046e-06
4.3529961579763833598e-06
3.8277461797119596902e-06
3.4192215322857592567e-06
3.104292477625109678e-06
2.8622302855696850873e-06
2.6753893591788657052e-06
2.5290304719723204987e-06
2.4115969991020604174e-06
2.3147092918856440721e-06
2.2342020317829095791e-06
2.1671047666870162476e-06
2.1117762167907911897e-06
2.0659644393076873261e-06
2.0286095978120842873e-06
1.9968922788471261616e-06
1.9688382636398407394e-06
1.9422557556338886827e-06
1.9189664646447801886e-06
1.8998163835021590718e-06
1.8864573460989608977e-06
1.8749957001819402554e-06
1.8609431410563695646e-06
1.838918448135168128e-06
1.8100583699367052644e-06
1.7774642957813693636e-06
1.7467467851489688806e-06
8.9401501014623320915e-07
8.9458228516365013821e-07
8.9489595369715526816e-07
8.9502264207777380273e-07
8.9504437787076039998e-07
8.952093175347724954e-07
8.9560103426787733735e-07
8.9610387764390350673e-07
8.9671840352885357286e-07
8.9713968297060024082e-07
8.9729494596972646499e-07
8.9721503450039484665e-07
8.9748612009448391034e-07
8.9781344838040639215e-07
8.9893508832735822027e-07
9.0009225590640978079e-07
9.0180746071878162168e-07
9.0453990239108399281e-07
9.0621903156724293315e-07
9.1143859416388985987e-07
9.1409630175009668517e-07
2.4789231685194727188e-05
2.0851296092365328235e-05
1.7460767687664033982e-05
1.4582383978559086251e-05
1.216789700767440747e-05
1.0160880941232024974e-05
8.5043391033489082356e-06
7.1481239627601423012e-06
6.050371629892227257e-06
5.1741522014830646731e-06
4.4847786729072666861e-06
3.9506466293867175275e-06
3.5435639894366293567e-06
3.2364899004576701654e-06
3.0037241351591936194e-06
2.8244904861066865771e-06
2.6834193894907475272e-06
2.5712972766943651262e-06
2.4811269120726623555e-06
2.4072582963807334054e-06
2.3433467559281790849e-06
2.2853952114578012527e-06
2.2318746768113485161e-06
2.1844977575002519639e-06
2.1434438073140148872e-06
2.1084624329626871464e-06
2.0766228474339571344e-06
2.0479000898509954926e-06
2.0216660269629801713e-06
1.9998715072953351772e-06
1.9797964641285473788e-06
1.9579917635946171436e-06
1.9302257034454587795e-06
1.898445940639504686e-06
1.8656155070353240331e-06
1.8363458872534600097e-06
9.4228156209604685856e-07
9.4270958968831373673e-07
9.4249873996847138004e-07
9.4149808071429592626e-07
9.4075294449074213223e-07
9.4026619570291357648e-07
9.4006198544231940315e-07
9.4008598475727433449e-07
9.4023129184084803888e-07
9.4019591364131184424e-07
9.3972815681721563309e-07
9.385702538902343647e-07
9.3767942042648990664e-07
9.3722474086239649665e-07
9.3749509649907416408e-07
9.3827157647008401208e-07
9.3964365037549861995e-07
9.4185446864567928071e-07
9.4328416375085561219e-07
9.4783612479453259229e-07
9.4943252833002914025e-07
2.2223195890619677675e-05
1.8616204748631148412e-05
1.5551100666890165289e-05
1.2974555800499043871e-05
1.0826347987965338581e-05
9.0473123306149469945e-06
7.5866691761202521306e-06
6.4042278682228208071e-06
5.4642833518605733948e-06
4.7294803410915116812e-06
4.1620018019269651113e-06
3.7275014103215897422e-06
3.3958174711361365261e-06
3.1407099815290037875e-06
2.9411775725152567694e-06
2.7858314572296282462e-06
2.6689271784626998912e-06
2.586601040717369039e-06
2.5285954483117685043e-06
2.4821227086971836309e-06
2.4361341596573333438e-06
2.3891771941903820857e-06
2.3445542175423126439e-06
2.3064567613610253718e-06
2.2738974047276854286e-06
2.2453229265232582734e-06
2.2165022285379797522e-06
2.1870651181175242146e-06
2.1562537807741309943e-06
2.1256051448835888251e-06
2.0931724702796077019e-06
2.0596485293587848472e-06
2.0247002481073761611e-06
1.9926711326369318168e-06
9.9123248751270622193e-07
9.9110206105112573013e-07
9.8968277866257947671e-07
9.8775766312241271663e-07
9.867360792749421542e-07
9.8617716825320033384e-07
9.8588749062016903891e-07
9.8582038493178239119e-07
9.8551733920057298995e-07