/*--------------------------------*- C++ -*----------------------------------*\
  =========                 |
  \\      /  F ield         | OpenFOAM: The Open Source CFD Toolbox
   \\    /   O peration     | Website:  https://openfoam.org
    \\  /    A nd           | Version:  12
     \\/     M anipulation  |
\*---------------------------------------------------------------------------*/
FoamFile
{
    format      ascii;
    class       volScalarField;
    location    "0.00512";
    object      rho;
}
// * * * * * * * * * * * * * * * * * * * * * * * * * * * * * * * * * * * * * //

dimensions      [1 -3 0 0 0 0 0];

internalField   nonuniform List<scalar> 
106891
(
1.1473424957206694863
1.1473161911875866537
1.1472811744219433283
1.1472436727285526548
1.1472034142071609875
1.1471688269139210803
1.1471345013409324221
1.1471080195458307482
1.1470823383407215967
1.1470590330352532504
1.1470363186601573169
1.1464844522868113952
1.146581637120844821
1.1467095851617130631
1.1468302321064789417
1.1469172555448396977
1.1469574581055608231
1.1469462824801470724
1.1468849239566494269
1.1467822022746383404
1.1466601285793902587
1.1465509372246809328
1.1464863864908372282
1.1464838751422741225
1.1465394894037805873
1.1466366898528541629
1.1467579284116451444
1.1468902468862764987
1.1470214605967856691
1.1471353015033696199
1.1472134721697879733
1.1472460930841541504
1.1472404796504163116
1.1472177030972339207
1.1471963119841697143
1.1471773403603264807
1.1471461544034544655
1.1470895018172790891
1.1470144171664302668
1.1469513286503782989
1.146935281900315351
1.146984053761300526
1.1470879752880234204
1.1472207962880394128
1.1473582560770860805
1.1474862926723377043
1.1475930863192829179
1.147655217672204131
1.147640780004465455
1.147836424976279579
1.1477910405768745328
1.1477562556373721581
1.1477316340789451843
1.1477164040420346769
1.147708737196841966
1.1477072633437515048
1.1477098552972659906
1.1477109936002918289
1.1477080088915463385
1.1476983792314834343
1.1476810857069754679
1.1476589446910487879
1.1476313177489405604
1.1476054747278854329
1.1475755263236750991
1.1475482526719480436
1.1475160516142837164
1.1474812375583949287
1.1474433719524435027
1.1464390301508600167
1.1465380101522735234
1.1466430222198105149
1.1467302770462945993
1.146783224552033742
1.1467900229800191969
1.1467430136699656718
1.1466462202828113792
1.1465247911312275164
1.1464223302069949106
1.1463826054829620027
1.1464268756460795906
1.146543052895858672
1.1466965240310464935
1.1468526347744958382
1.1469911285891669639
1.147104580678742547
1.1471915004348200995
1.1472500002938783581
1.1472777143486472262
1.1472806517640057322
1.1472732808378636182
1.1472685817715124745
1.1472637792774988963
1.147241204372854817
1.1471872879832223369
1.1471099535346669374
1.1470390601378273043
1.1470088517084164881
1.1470384131055821886
1.1471239765170513358
1.1472469013131252336
1.147387051730084595
1.1475284383481252348
1.1476513954739115952
1.1477251028195907256
1.1481719946173563063
1.1481207104218387194
1.1480809240869507271
1.148052451688795994
1.148036214829865953
1.1480335847204679034
1.148043990912561263
1.1480636379168656092
1.1480881910798454992
1.1481108702666960042
1.1481277423113975811
1.1481349820401074435
1.148133411306583973
1.1481204903199531131
1.1481020723706636399
1.148073076119989544
1.1480410568681056471
1.147998206486233963
1.147947289374219304
1.1478882911862955396
1.1462884969521454082
1.1463508887538793601
1.1464411897614916747
1.1465328698784760242
1.1466007430333453598
1.1466231263349158098
1.1465875609670987956
1.1465007502514958926
1.146394457083462104
1.1463202853511373913
1.1463273127140518604
1.1464352760683209631
1.1466201190081659611
1.1468253483575556739
1.1469963491179209214
1.1471088997775884533
1.1471715683326886293
1.1472089747353062528
1.1472409088062438531
1.1472750027594258437
1.1473090854088476842
1.1473391228944356257
1.1473598045356043773
1.1473642796252239151
1.1473430962029687041
1.1472903390209294727
1.1472180747986340243
1.1471543374178332364
1.1471258158606452149
1.1471467788126166187
1.14721644185724303
1.1473221846224734843
1.1474475383084523639
1.1475761428490405258
1.1476871512298296718
1.1477510988651502544
1.1484503794607103799
1.148403515343785708
1.1483724042675169663
1.1483605260146336757
1.1483698485872897432
1.1484012063855650876
1.1484505817378800607
1.1485090265466058046
1.1485678085186428188
1.1486186924782062491
1.1486538577577505293
1.1486726089981551535
1.1486698215667112688
1.1486517782310403657
1.148615172673053797
1.1485684516477236983
1.1485070500410474725
1.1484335439325688011
1.1483487604941604587
1.146144113477151949
1.1462256132168193723
1.146328843123844532
1.1464147795423300646
1.1464537934470799829
1.1464341773988306894
1.1463685182320728639
1.1462946999475944754
1.1462664380418283727
1.1463319367987963027
1.1465055974403162153
1.1467504443497056332
1.1469914013155004806
1.1471584403037666799
1.1472246982389742165
1.1472166840221482698
1.1471906490831818015
1.1471968514165975517
1.1472525053190840705
1.1473390651099499848
1.1474214444369139621
1.1474705306151580242
1.1474748839243409382
1.1474402607575655555
1.147382927267260655
1.1473230506206542056
1.1472817630235661035
1.147275527670604145
1.1473083300607829216
1.147372489305325205
1.147455821054484959
1.1475481033233110306
1.1476359202226016354
1.147704326887496018
1.1488353584352297698
1.1487704601949424443
1.148720554236255742
1.1486911258193868157
1.1486886334214809757
1.1487181566124393672
1.1487792432932619757
1.1488661987786685792
1.1489684695731052777
1.1490711881837785135
1.1491604550638923055
1.1492242160780021809
1.1492581377484962779
1.149257432126582934
1.1492300377612465478
1.1491760869515694754
1.1491063880497647265
1.1490194169420338
1.1489183316296696091
1.148805775638004345
1.1459602359006537675
1.1460357598391157641
1.1461530455106441195
1.1462601961012974794
1.1463220509603579966
1.1463304070209687779
1.1463028249347890775
1.1462774528894745796
1.1463016440461659684
1.1464153841341235829
1.1466271484108820911
1.1468970624176217932
1.1471470117271036493
1.1472984855406567206
1.147320165756829935
1.1472492733831622935
1.1471684686979257695
1.1471552110669518409
1.1472356161377770256
1.1473754888070528679
1.1475082154903246678
1.1475789865424266267
1.1475738688243557473
1.1475179310816798761
1.1474530944057763637
1.1474109604195958934
1.1474049795236758165
1.1474371083780776637
1.1474987040516175796
1.1475712892356797479
1.1476364415042827893
1.1476839830203924286
1.1477100617097111268
1.1490818880687709846
1.1490384890365257231
1.1490213950869510029
1.1490381845639354719
1.1490929691448243943
1.1491849614901481491
1.1493076717003258835
1.1494476215045836831
1.1495861212370528381
1.1497043699442892617
1.1497860482320958475
1.1498251939008552469
1.1498173426819859877
1.1497722140789250478
1.1496944577787278075
1.1495974738489891376
1.1494829945767153223
1.1493560390855357412
1.1492203402043466021
1.1459070990243278576
1.1460345478535522989
1.1461611321761697724
1.1462537793937592756
1.1463094078130611209
1.1463435272864985759
1.1463810331231496509
1.1464519404356092735
1.146582016149979788
1.146779557045763287
1.1470206739228276938
1.1472448441967826316
1.1473783004012150233
1.1473822883373268056
1.147288329169180443
1.1471844011163203625
1.1471599069412887761
1.1472492794965736262
1.147411942035486021
1.1475645126388123174
1.1476413661389550658
1.1476294681986960455
1.1475650046143643923
1.1475033851416232
1.1474866938409509221
1.1475261806557384148
1.1476058689679882185
1.1476974535880386519
1.147775956489839766
1.1478242572982970682
1.1478306797658770488
1.1477956608010595474
1.1494119552304620235
1.1493921644442464114
1.1493998093986756981
1.1494429659594282978
1.1495242004189336615
1.1496408078382531759
1.1497828713119062627
1.1499351776152502147
1.1500783620206946889
1.1501936338813130156
1.150265014060572355
1.1502876958632066717
1.1502594791660654128
1.1501918601658454033
1.1500909853976986064
1.149972228077456915
1.1498399447063187839
1.1496989353215865126
1.1495533056114946024
1.1460288570572139122
1.1461652205044738917
1.1462927522979549089
1.1464053701654930428
1.1465083047239537084
1.1466061913673648576
1.1467039217589776179
1.1468122227172889982
1.1469440167969213729
1.1471027250364163041
1.1472642734056803793
1.1473785187567115962
1.1474028798318498534
1.1473450511495066895
1.1472661961792054441
1.1472383993681021241
1.1472969999184554624
1.1474193531021621428
1.1475446713827484047
1.1476192306797086129
1.1476290865085847503
1.1476043452730095851
1.1475909148124072701
1.1476178838463713117
1.1476865516196095296
1.1477780330713578394
1.1478675308891239659
1.1479333892783094573
1.1479587592066613499
1.1479354446374296916
1.1497802701839243689
1.1498266903572711417
1.1498968071238910849
1.1499932518501680967
1.1501124402758131637
1.1502437125001858664
1.1503720675763868808
1.1504806306776698133
1.150555468074231813
1.1505858407298987789
1.150571661972772608
1.1505145330243682356
1.150427044419482181
1.1503160586257483722
1.1501942122672319524
1.1500653723774969528
1.1499319041525888352
1.1497971867866576545
1.1463069043104205935
1.1464567977594051218
1.1466120830410497788
1.1467649814522076213
1.1468991955134137939
1.1469945083695183285
1.1470471938281392443
1.1470823926630093759
1.1471356161846151256
1.1472223080096568548
1.1473244921400387319
1.1474029201486315444
1.1474265497841258377
1.1473987541353165565
1.1473561348479890398
1.1473425778204004999
1.1473790987599450375
1.1474548002279421066
1.1475467332599271764
1.1476418457931039097
1.1477341887966365785
1.1478165137415576869
1.1478803512416038135
1.1479241034299310087
1.1479536340551934614
1.1479756848633919653
1.1479922840511775917
1.1479968456062521476
1.1501414607078079833
1.1502280150140171688
1.1503208923718764023
1.1504179688416797944
1.1505136234651738292
1.1505988989439637216
1.1506642959292971984
1.1507023875475828056
1.1507096666529068596
1.1506842610090808332
1.1506308568711656193
1.1505533789665991495
1.1504627401616875915
1.1503635594874681569
1.1502634073454585106
1.1501630667114617346
1.1500616366046543249
1.1499604440667714478
1.1467450012505848722
1.1469077798306399618
1.1470584078216590207
1.1471716791536541447
1.147224788342280144
1.1472153223648475784
1.147171837311522502
1.1471445790676524368
1.1471779402191615294
1.1472792789407972869
1.1474095558935852868
1.1475069203563521558
1.147527050777285007
1.1474740643719614219
1.1473963943784157848
1.1473592972248931599
1.1474144413007978383
1.1475730483741124477
1.1477983951380472671
1.1480251036459467873
1.1481902308275917513
1.1482592868475021142
1.1482346819178781416
1.1481501158261087081
1.1480552383329776234
1.1479895585594419583
1.1479656496336565485
1.1504908652924945578
1.1505881004022344705
1.1506615981551988614
1.1507086493950364758
1.1507276992367394541
1.1507196353091511121
1.1506863276523060513
1.1506321818473603802
1.1505620334015627115
1.1504841929336739881
1.150404008359299679
1.1503290548841687002
1.1502603753605440406
1.1502000225733850503
1.1501453491443771604
1.1500918272490099348
1.1500400596611015658
1.1469444670683874854
1.1470798586634138871
1.1472102325665667344
1.147310257668882727
1.1473584741245894669
1.1473446591287852492
1.1472807407123666312
1.1472030142526077334
1.1471606207264655186
1.1471917343703725845
1.1473001388765811104
1.1474481836893124509
1.1475735560007829239
1.147625623920452087
1.1475970089189506673
1.1475320891880615992
1.1475067763200825777
1.1475890166329718589
1.1478003060355945752
1.148099607520851384
1.1483979187195807459
1.1485991165745579323
1.1486458657760891811
1.1485439073774112995
1.1483553684336904599
1.1481615570138421489
1.1480210825151235809
1.1505725193955684826
1.1506174335540608755
1.150623472972328365
1.1505944084644965653
1.1505378958904106668
1.150462796227024187
1.1503794795180874999
1.1502967311763190317
1.1502235211092046718
1.1501629301830098573
1.1501182964021146038
1.1500873528366946097
1.1500682192114892732
1.1500574825412499536
1.1500489061120364731
1.1500434091073996612
1.1471798047554846445
1.1472961077427805687
1.1473947697015398628
1.1474486668863512762
1.1474401624009080702
1.1473735724502769351
1.1472783369776122786
1.1472003718648240422
1.1471827162175780579
1.1472447821114910571
1.1473718291204109132
1.1475227625929373954
1.1476509272029935538
1.1477265771953062412
1.1477493511691978512
1.1477502592541830584
1.147780322169519085
1.1478878790191400228
1.1480898672132513472
1.1483558852385900018
1.1486158670668440429
1.1487877602123748311
1.1488188926299849335
1.1487125419806334392
1.1485201160623870198
1.148308500743228322
1.1481284945482927995
1.1480004454564063376
1.1503550901831158804
1.1503400348446113366
1.1502936313342684294
1.1502281029477796626
1.1501557405268689749
1.1500886055712802314
1.1500334658632309637
1.1499945134990727791
1.1499699820012092566
1.1499580285118304879
1.1499549671601947409
1.1499574538987396011
1.1499648489930762718
1.149974303154642552
1.149989561234888269
1.1473950283656226823
1.1474691614624894509
1.1474889431624801794
1.1474459668873273621
1.1473559944752977913
1.1472588842002677811
1.1472036114656705141
1.1472233586154236828
1.1473184277407941778
1.1474592495254365421
1.1476064196366113634
1.1477313510911135719
1.1478250692368014985
1.1478949983756943087
1.1479585869868809134
1.1480387360174282296
1.148156898639575596
1.1483219610358408325
1.1485144216571641085
1.1486875469404014272
1.1487928277339598537
1.14880095463067744
1.1487141194440828595
1.1485643949082071646
1.1483929100920406974
1.1482275846725662483
1.1480766770896595474
1.1500268391841306226
1.1499781839868459254
1.1499217243112058728
1.1498709132744664441
1.1498359776688367173
1.1498193536006249271
1.1498194610302505669
1.1498301156878261153
1.1498457057086504118
1.1498610890698528486
1.1498736574918795306
1.14988593700431041
1.1498984098702371703
1.1499190808807673303
1.1474560687463712938
1.1474521841439533354
1.1473901402085808776
1.1472988808202193578
1.1472255540859981338
1.1472143974729485105
1.1472814400026620785
1.1474079175630802485
1.1475561815372110619
1.1476954132883028237
1.1478159906984606309
1.1479256287456900409
1.1480346500125557796
1.1481461657442775248
1.1482576799573143145
1.1483671291635344502
1.1484730136629099917
1.1485686760607562995
1.1486390351555315625
1.1486648649841513237
1.1486380284157189369
1.1485689669886134379
1.1484759113284179755
1.1483716174324847259
1.1482539741479280693
1.1481121600440757913
1.1496714250465553953
1.1496346050797312532
1.1496127021338391483
1.1496130058636027105
1.1496342613988594916
1.1496702594238048523
1.1497113141021979565
1.1497482761962058984
1.1497757074555836621
1.1497915550316735178
1.1498014761315613619
1.1498101059109446798
1.1498284027244383143
1.1473568625624748218
1.1472872788246897269
1.1472108900856001767
1.1471776498054193638
1.1472205089141811474
1.1473370117766621412
1.147493065357908737
1.1476475311683647096
1.1477795509396022666
1.1478961513822203422
1.1480160450532295169
1.1481478080538878306
1.1482803899872395803
1.1483930043380816688
1.1484701196862134864
1.1485090450639587889
1.1485148753749467865
1.1484921314534535242
1.1484449771754925429
1.148382665677438963
1.1483211494893956761
1.1482723642300907141
1.1482304040938713374
1.1481707926528972319
1.1480662719906535862
1.1493899782076484328
1.1493937851348248191
1.1494227849808571484
1.1494727641376387695
1.1495347290555348874
1.1495963151160670801
1.1496460842037035111
1.1496791054334700721
1.1496941600845003162
1.149699533304101795
1.1497030623512489722
1.1497172413709146888
1.1471482828768890805
1.1470937239550149656
1.1471034648936611067
1.1471974901977248784
1.1473579102242716932
1.1475416293376330401
1.1477076632865856887
1.1478415316696999326
1.1479588274370782219
1.148082172389130573
1.1482154918709963631
1.1483375830928330696
1.1484202084633712282
1.1484476786964885608
1.1484226798893724109
1.1483585441931527527
1.148269034034006264
1.1481679088011529366
1.1480734910627070633
1.1480075608179964863
1.1479828768849917875
1.1479869254613881413
1.1479824415284314298
1.1479306843881174061
1.1469583480662053354
1.147001291256712241
1.1471336000201466376
1.1473282095304460082
1.1475368422523553047
1.1477197489615547088
1.1478659625369991293
1.1479898690909060566
1.1481091381246482097
1.1482227260915824907
1.1483086391797059367
1.1483415750654788479
1.1483126308849720409
1.1482326743608453068
1.1481204845273327297
1.147991568973195653
1.1478591751715425673
1.1477420582069721711
1.1476649181755349538
1.1476449147097111947
1.1476738880273713583
1.147715388912748935
1.1477252380688951483
1.147022877516874928
1.1472381790921093447
1.1474670711189025596
1.1476690818094763546
1.1478314121187838115
1.1479628822391154674
1.1480732059644389587
1.1481567567421688825
1.148194530994069984
1.1481702523561023721
1.14808691199640589
1.1479646892277639569
1.1478250214013880903
1.1476798153044664996
1.1475353957068206157
1.1474057739492156127
1.1473161594115568462
1.1472904723406802674
1.1473310667065503843
1.1474095552355121352
1.1474807374196711596
1.1477337713287834031
1.1478694039895518397
1.1479666812720721314
1.1480172860670578849
1.1480066090347191832
1.1479294895311724645
1.147801415399991587
1.1476510057688484867
1.1475010265628200479
1.1473573301271060565
1.1472161970752687843
1.1470838445772926217
1.146984736319140108
1.1469504922879691922
1.1469960301243542489
1.1471033814080053848
1.147228946746763123
1.1477534972831382465
1.1476373400374355604
1.1474812537940166646
1.1473191526294714837
1.1471731601933605749
1.1470425353338717933
1.1469143001268298221
1.1467874953233789803
1.1466857091934514745
1.1466464652188386175
1.1466949726516073582
1.1468234322290387084
1.1469904768664078709
1.1473137619221993599
1.1471502718079147343
1.1469947249572129966
1.1468655355452650468
1.1467553987613421373
1.146645176084911677
1.1465294836744341911
1.1464311263462312329
1.1463914555595531297
1.1464430459264207673
1.1465852540505137025
1.1467772698318174918
1.1474957424561917918
1.1478151734307655563
1.148043036710490572
1.1481749838138473052
1.148216548045548846
1.1481974923374171915
1.148167238790456457
1.1481607879414768014
1.1481754766085190411
1.1481752350646030614
1.1481195533651604723
1.1480026530735631951
1.1478595607126418354
1.1477336369297028718
1.1476403443138831761
1.1475545555859198998
1.1474307892474882031
1.1472362654802423787
1.1469659790441373293
1.1466351568396380145
1.146811983809744584
1.147354768079206222
1.1478041443678774769
1.1481263744430039164
1.1482982072620033787
1.1483345670602749244
1.1482943126846079096
1.1482519770270851467
1.1482494354494776623
1.1482712611685421678
1.1482638438924583912
1.1481824191502285615
1.1480300005681867148
1.1478571309254215205
1.1477174385944608481
1.1476268074959654619
1.1475560085713809588
1.1474539903457290357
1.1472797571644184345
1.1470215254468612009
1.1466919509354589479
1.1463190627157999746
1.1451453963951743198
1.145824618452523147
1.1464843918795468714
1.1471217285087078608
1.147685446986690172
1.1481014089328316352
1.1483267272222859035
1.1483809244813192318
1.1483449961025400388
1.1483117320258064975
1.1483268817415681617
1.1483628124952267591
1.1483496731353832754
1.1482411636685820877
1.1480522875617851231
1.1478500903843227299
1.147697924236835032
1.1476109120009094777
1.1475540509582879967
1.1474695578142555252
1.1473088441806080784
1.1470554573272102594
1.146722387336105653
1.1463434781972379195
1.1459654904016736143
1.1456342328484712123
1.1443176583544734104
1.1449988027535293877
1.1456458539140985664
1.1463118099173128517
1.146991877682076888
1.1476111653991558637
1.1480637458983913302
1.148289862765650593
1.1483167208152427197
1.1482468373332950229
1.1481925338906648904
1.1482050358619957375
1.148245459876270802
1.1482278753947412486
1.1481006979610797192
1.1478877915958420886
1.1476668445384432538
1.1475082071091533553
1.1474265336720690378
1.1473802302410387455
1.1473049897261151653
1.1471473527591247166
1.1468878304664404943
1.1465414537578668686
1.1461496783536659905
1.1457675002260938601
1.1454416772403144265
1.1451924780136935045
1.1452474061076054479
1.14572620344751952
1.1460652388437797544
1.1463678850440195411
1.1467366646104009131
1.1471827589029583994
1.147619527065077305
1.147918788573432991
1.1480031752336885553
1.1479024069805352504
1.1477290363161620768
1.1476039627974292667
1.1475754955414028124
1.1475889579970155463
1.1475432314275417767
1.1473813725096635441
1.1471370984270605753
1.1468983692629732829
1.1467388148614998666
1.1466679353032367406
1.1466323564876732544
1.146556706574053619
1.1463826098919722707
1.1460891087320299597
1.1456988405192669589
1.145268492294526208
1.1448675245965467262
1.144547456584813494
1.1443225402221803844
1.1441768795400011349
1.1463432312979899841
1.1464515924133757974
1.1464254407334262265
1.1463050485727086514
1.1462254529402493564
1.1463113883050262132
1.1465712392726163937
1.1468886876024118049
1.1471010252456761425
1.1471068004399425089
1.1469304441331962252
1.146691555501070825
1.1465193679260432535
1.1464630078335187324
1.1464577842243595107
1.1463900663908681565
1.1461973637979196994
1.1459197413451647218
1.1456539625049668718
1.1454769835326366056
1.1453978792500050243
1.1453589720208756653
1.1452803914736504609
1.1451023149006986923
1.1448022824696229005
1.1444053728571483841
1.1439753297947685695
1.143586175689775386
1.1432866964584371683
1.1430814251900036638
1.1429444480980981425
1.1428510352070420097
1.1455491710659588822
1.1455685132955870653
1.1454531108249690341
1.1452449505697133159
1.1450975569030898971
1.1451484017052502296
1.1454084433398052933
1.1457395476383642752
1.1459561083610581012
1.1459465913075801424
1.1457393618042008843
1.1454705366286228596
1.1452822003225584524
1.1452262528704097999
1.1452294216128773297
1.145163936620698264
1.1449613581180997368
1.1446660305293123727
1.1443848583282887343
1.1442011391271058596
1.1441251448402518509
1.1440957583139537146
1.1440274445326157338
1.1438556031461584173
1.1435548888711919435
1.1431503326343193105
1.1427115870059063596
1.1423186579820492348
1.1420216982334876477
1.1418214175390570819
1.1416875547041414052
1.1415941387507120286
1.1415390342550977287
1.1397706669974818627
1.1400391928698727639
1.1403666427320728882
1.1408290284611977139
1.1413705500661366354
1.1418686356196861009
1.1441507148018836837
1.1441728140409237469
1.1440466210289128579
1.1438178930863771576
1.1436579508829514129
1.1437155807303300836
1.1440020332694591509
1.1443670745136207412
1.144606618415817012
1.1446024619185881654
1.1443871054671421739
1.1441090259199431234
1.1439195950073497432
1.1438707580159688249
1.1438838467674712351
1.1438215115231780139
1.1436141011730249772
1.143311536294290498
1.1430293274509581991
1.1428546961372272328
1.1427950990296737999
1.1427850677999094042
1.1427339968082479427
1.1425737027267170998
1.1422780694619480979
1.1418731737821885552
1.1414336524598402978
1.1410448037609721705
1.1407574378973273088
1.1405693222903658945
1.1404462089191085283
1.1403607291870243579
1.1403126264321312711
1.1403123014489551235
1.1401224094210440363
1.1403056268793343442
1.1405116107538213477
1.1407778145448175255
1.1411789694751008906
1.1416544943289841374
1.1420789093743166642
1.1426609243497916069
1.1426924874844597291
1.1425685667211795682
1.1423354611215157384
1.1421756349523437546
1.1422430012946598321
1.1425490185789624054
1.142937355480366346
1.1431905091793181928
1.143189612265992583
1.142970659755956131
1.142687695162675432
1.1424986310948916923
1.1424553665368555322
1.1424779451259012841
1.1424233656112097179
1.1422200844844470069
1.1419188173469325687
1.1416379540190566555
1.1414674264385835656
1.1414144917119011247
1.1414140000140979847
1.1413732942878562771
1.1412211379614074502
1.1409297490970133904
1.1405252987926688402
1.1400849615214012633
1.1396979957749122647
1.1394161433888654322
1.1392355314312314629
1.1391187417232462309
1.1390374193864105656
1.1389924626151024523
1.1389971355410832832
1.139043718005708028
1.1473292392285661112
1.1471336673821914687
1.1469635747186999186
1.1468295946206905622
1.1467335254483916884
1.1466829576462140849
1.1466697601483040181
1.1466986523788762486
1.1467572188251666798
1.1468381373973060011
1.1469369691060953276
1.1465981481515734597
1.1465072971323793105
1.1464733973276748369
1.1465087922012218158
1.1466035598000601237
1.1467224305031549214
1.1468158136973207739
1.1468441722974054287
1.1468007098076273831
1.1467100051589880216
1.1466100433771322376
1.1465322586902080282
1.1464929480876906442
1.1464957478430410909
1.1465392534592706575
1.1466176697923622374
1.1467197131264295074
1.1468309921735400092
1.1469398957023391183
1.1470383959029346599
1.1471176739368356134
1.1471615643528723094
1.1471485740890854377
1.1470683711799787297
1.1469424900907836395
1.1468249078330090551
1.1467770102142640365
1.146830471770728721
1.1469626514413009399
1.1471042823222405982
1.1471807789973826885
1.1471589476934296314
1.1470684676253997125
1.1469827435335577803
1.1469727921684893523
1.1470680601077984928
1.1488124035984401683
1.1488335912562193108
1.1488345864069879898
1.1488098474473056321
1.148754466314964473
1.1486651523019562049
1.148541471133958547
1.148386411932627027
1.1482059489914571149
1.1480092744920469272
1.1478069431578341586
1.1476114985069307828
1.1474327712413339153
1.1472838424077891339
1.1471690436506074562
1.1470990532831930597
1.1470687207720482448
1.1470838338717976868
1.1471313157925924209
1.1472024412168830843
1.1472886186602226921
1.1464939917164060912
1.1463766422473087303
1.1463239679686965111
1.1463505819506851768
1.1464418999716732284
1.1465572452289292116
1.146647590962970531
1.1466807263617391222
1.1466605959295441686
1.1466182858008506784
1.1465846280333500395
1.1465736182691532719
1.1465825415393156028
1.1466029026189896722
1.1466301056655574531
1.1466659066053837002
1.1467124217699526945
1.1467692048762720969
1.1468328128971363444
1.1468968941843564746
1.146949328156416037
1.1469677808804168428
1.1469295206054506142
1.1468285123604822218
1.1466954144889909273
1.1465946489165150801
1.1465954229057233604
1.146727885201449304
1.1469560623973544811
1.1471904692016270388
1.1473365078270487682
1.1473493898183602102
1.1472598720572735331
1.1471512893736268701
1.1471078042569453626
1.1471722814015818948
1.149143522340859036
1.1491494952643968031
1.1491452766807210839
1.1491270175647005924
1.1490890258842798577
1.1490259826175350799
1.1489333518343503027
1.1488093197770858911
1.148657081682424419
1.1484826893008757143
1.1482952838031996734
1.148107128166921953
1.1479296805521865821
1.1477774681173411597
1.1476574109682451397
1.1475807050148536526
1.1475431532296420656
1.1475489117835979691
1.147583550539390318
1.1476374468804366735
1.1476996060104021069
1.1462671713654106753
1.1461994094099121622
1.1462139517419522861
1.1462965942776282002
1.1464070712492278048
1.1465026909744440164
1.1465594291908665081
1.1465824188756088553
1.1465987970081961134
1.1466309725967418487
1.1466784846267135123
1.1467246197666802754
1.1467534180431127044
1.1467605318109483914
1.1467534884744969848
1.1467434818373798411
1.146739213040152805
1.1467448129515569466
1.1467615177538041937
1.1467800926736324563
1.1467783191475735549
1.1467297155361531047
1.1466285850144619651
1.1465053526051500743
1.1464262429960321299
1.1464643642403402612
1.1466519556330938556
1.1469505525646765953
1.1472614845680233486
1.1474774606006590272
1.147542417562234407
1.14747674100558128
1.1473598615081208596
1.1472808162517542652
1.149473675573217335
1.1494629183833027231
1.1494466248076165016
1.1494197598846345176
1.1493754259903830039
1.1493065490740950185
1.1492092824197570611
1.1490825456904447677
1.1489298853659983823
1.14876093581510208
1.1485884759303548464
1.1484249666451571414
1.1482859900159934075
1.1481775617440723725
1.1481092559793120156
1.148075190539786794
1.1480759440357222179
1.1480951113358195403
1.1481225885586590074
1.1481474409590244345
1.1461893663142659339
1.1461145889256241226
1.1461159848839561626
1.1461885704735157443
1.1463014067750894043
1.1464185063753702387
1.1465192631968694759
1.1466000201561012961
1.1466721133835289237
1.146748353005440979
1.1468252955883420086
1.146886286965623114
1.1469165485838015428
1.1469126849459745365
1.1468812966171861856
1.1468322336697660546
1.1467754098667757301
1.1467227553465138001
1.1466859951402215145
1.1466665841877152765
1.1466475016601849202
1.1466027067615955914
1.1465203844301654623
1.1464240339074691644
1.1463745179250615092
1.146438525764375882
1.1466489841749420986
1.1469760402159845381
1.1473273369898657759
1.1475955619598308122
1.147715943832768426
1.1476914134754268026
1.1475808018178024206
1.1474604913428856356
1.1497955543124493971
1.1497762943641034461
1.1497578479867975876
1.1497336693125206342
1.1496970876576253495
1.1496412729119545038
1.1495611686685855979
1.1494554154895362252
1.1493277474108909431
1.1491857702311842893
1.1490422843277059428
1.1489089271339418818
1.148799006004729728
1.1487172250766737314
1.1486687982838699185
1.1486441806536937804
1.148640634030031249
1.148641024082792006
1.1486351044405151978
1.1486132348150615012
1.1460854708132091062
1.1460751530226664929
1.1461414610514397694
1.1462695513673872849
1.1464255129789160392
1.1465790170253005176
1.1467136516451421624
1.1468247909211399804
1.1469154173513922412
1.1469879176016499756
1.1470404807579905881
1.1470695643397375019
1.1470715300597034148
1.1470425733001601287
1.1469808347246852609
1.1468922456710068936
1.1467938177595460303
1.1467085036301072343
1.1466526106489542958
1.1466221982699087434
1.1465935548917185471
1.1465463328508163077
1.1464907719040533518
1.1464726133572646916
1.1465488987094059059
1.1467512072488597052
1.1470572230860205387
1.147396105084215634
1.1476810487918500669
1.1478442671472104397
1.1478619839406096759
1.1477579530135626484
1.1500531487017400245
1.1500263213030996745
1.1499976005533931733
1.1499610656799423847
1.149910874690182494
1.1498431329403036028
1.1497576694193094582
1.1496583802422133402
1.1495527817973247853
1.1494515524146315943
1.1493631258932146544
1.1492965244587809437
1.149250669062563901