# Selection         : all
# Cells             : 1
# Volume            : 1.000000000000e+00
# Time              	volAverage(integerMoment0(N,v).bubbles)
0                   	3.229936676236e+07
0.001               	3.229936676213e+07
0.002               	3.229936676189e+07
0.003               	3.229936676166e+07
0.004               	3.229936676143e+07
0.005               	3.229936676119e+07
0.006               	3.229936676096e+07
0.007               	3.229936676072e+07
0.008               	3.229936676048e+07
0.009               	3.229936676025e+07
0.01                	3.229936676001e+07
0.011               	3.229936675977e+07
0.012               	3.229936675953e+07
0.013               	3.229936675929e+07
0.014               	3.229936675905e+07
0.015               	3.229936675881e+07
0.016               	3.229936675857e+07
0.017               	3.229936675832e+07
0.018               	3.229936675808e+07
0.019               	3.229936675784e+07
0.02                	3.229936675759e+07
0.021               	3.229936675735e+07
0.022               	3.229936675711e+07
0.023               	3.229936675686e+07
0.024               	3.229936675662e+07
0.025               	3.229936675638e+07
0.026               	3.229936675614e+07
0.027               	3.229936675590e+07
0.028               	3.229936675566e+07
0.029               	3.229936675543e+07
0.03                	3.229936675521e+07
0.031               	3.229936675499e+07
0.032               	3.229936675477e+07
0.033               	3.229936675457e+07
0.034               	3.229936675439e+07
0.035               	3.229936675421e+07
0.036               	3.229936675406e+07
0.037               	3.229936675393e+07
0.038               	3.229936675383e+07
0.039               	3.229936675377e+07
0.04                	3.229936675374e+07
0.041               	3.229936675377e+07
0.042               	3.229936675385e+07
0.043               	3.229936675400e+07
0.044               	3.229936675423e+07
0.045               	3.229936675456e+07
0.046               	3.229936675500e+07
0.047               	3.229936675556e+07
0.048               	3.229936675627e+07
0.049               	3.229936675715e+07
0.05                	3.229936675823e+07
0.051               	3.229936675953e+07
0.052               	3.229936676109e+07
0.053               	3.229936676294e+07
0.054               	3.229936676512e+07
0.055               	3.229936676769e+07
0.056               	3.229936677068e+07
0.057               	3.229936677415e+07
0.058               	3.229936677817e+07
0.059               	3.229936678281e+07
0.06                	3.229936678813e+07
0.061               	3.229936679422e+07
0.062               	3.229936680117e+07
0.063               	3.229936680908e+07
0.064               	3.229936681806e+07
0.065               	3.229936682823e+07
0.066               	3.229936683972e+07
0.067               	3.229936685267e+07
0.068               	3.229936686723e+07
0.069               	3.229936688357e+07
0.07                	3.229936690188e+07
0.071               	3.229936692235e+07
0.072               	3.229936694519e+07
0.073               	3.229936697064e+07
0.074               	3.229936699894e+07
0.075               	3.229936703035e+07
0.076               	3.229936706518e+07
0.077               	3.229936710373e+07
0.078               	3.229936714632e+07
0.079               	3.229936719331e+07
0.08                	3.229936724509e+07
0.081               	3.229936730206e+07
0.082               	3.229936736464e+07
0.083               	3.229936743331e+07
0.084               	3.229936750854e+07
0.085               	3.229936759086e+07
0.086               	3.229936768082e+07
0.087               	3.229936777899e+07
0.088               	3.229936788600e+07
0.089               	3.229936800249e+07
0.09                	3.229936812913e+07
0.091               	3.229936826666e+07
0.092               	3.229936841580e+07
0.093               	3.229936857736e+07
0.094               	3.229936875214e+07
0.095               	3.229936894100e+07
0.096               	3.229936914482e+07
0.097               	3.229936936452e+07
0.098               	3.229936960104e+07
0.099               	3.229936985535e+07
0.1                 	3.229937012846e+07
0.101               	3.229937042139e+07
0.102               	3.229937073517e+07
0.103               	3.229937107086e+07
0.104               	3.229937142953e+07
0.105               	3.229937181225e+07
0.106               	3.229937222007e+07
0.107               	3.229937265406e+07
0.108               	3.229937311526e+07
0.109               	3.229937360467e+07
0.11                	3.229937412327e+07
0.111               	3.229937467199e+07
0.112               	3.229937525169e+07
0.113               	3.229937586317e+07
0.114               	3.229937650713e+07
0.115               	3.229937718417e+07
0.116               	3.229937789479e+07
0.117               	3.229937863932e+07
0.118               	3.229937941798e+07
0.119               	3.229938023077e+07
0.12                	3.229938107755e+07
0.121               	3.229938195793e+07
0.122               	3.229938287133e+07
0.123               	3.229938381689e+07
0.124               	3.229938479351e+07
0.125               	3.229938579979e+07
0.126               	3.229938683406e+07
0.127               	3.229938789431e+07
0.128               	3.229938897822e+07
0.129               	3.229939008315e+07
0.13                	3.229939120610e+07
0.131               	3.229939234376e+07
0.132               	3.229939349247e+07
0.133               	3.229939464824e+07
0.134               	3.229939580679e+07
0.135               	3.229939696353e+07
0.136               	3.229939811361e+07
0.137               	3.229939925195e+07
0.138               	3.229940037328e+07
0.139               	3.229940147220e+07
0.14                	3.229940254321e+07
0.141               	3.229940358077e+07
0.142               	3.229940457941e+07
0.143               	3.229940553374e+07
0.144               	3.229940643858e+07
0.145               	3.229940728899e+07
0.146               	3.229940808038e+07
0.147               	3.229940880858e+07
0.148               	3.229940946990e+07
0.149               	3.229941006122e+07
0.15                	3.229941058003e+07
0.151               	3.229941102449e+07
0.152               	3.229941139348e+07
0.153               	3.229941168663e+07
0.154               	3.229941190428e+07
0.155               	3.229941204758e+07
0.156               	3.229941211837e+07
0.157               	3.229941211919e+07
0.158               	3.229941205327e+07
0.159               	3.229941192437e+07
0.16                	3.229941173681e+07
0.161               	3.229941149530e+07
0.162               	3.229941120488e+07
0.163               	3.229941087081e+07
0.164               	3.229941049846e+07
0.165               	3.229941009320e+07
0.166               	3.229940966029e+07
0.167               	3.229940920477e+07
0.168               	3.229940873139e+07
0.169               	3.229940824449e+07
0.17                	3.229940774794e+07
0.171               	3.229940724510e+07
0.172               	3.229940673873e+07
0.173               	3.229940623104e+07
0.174               	3.229940572365e+07
0.175               	3.229940521766e+07
0.176               	3.229940471369e+07
0.177               	3.229940421210e+07
0.178               	3.229940371303e+07
0.179               	3.229940321659e+07
0.18                	3.229940272289e+07
0.181               	3.229940223204e+07
0.182               	3.229940174414e+07
0.183               	3.229940125928e+07
0.184               	3.229940077755e+07
0.185               	3.229940029901e+07
0.186               	3.229939982376e+07
0.187               	3.229939935184e+07
0.188               	3.229939888333e+07
0.189               	3.229939841829e+07
0.19                	3.229939795675e+07
0.191               	3.229939749878e+07
0.192               	3.229939704442e+07
0.193               	3.229939659370e+07
0.194               	3.229939614665e+07
0.195               	3.229939570332e+07
0.196               	3.229939526372e+07
0.197               	3.229939482788e+07
0.198               	3.229939439582e+07
0.199               	3.229939396755e+07
0.2                 	3.229939354309e+07
0.201               	3.229939312245e+07
0.202               	3.229939270563e+07
0.203               	3.229939229265e+07
0.204               	3.229939188350e+07
0.205               	3.229939147819e+07
0.206               	3.229939107671e+07
0.207               	3.229939067906e+07
0.208               	3.229939028522e+07
0.209               	3.229938989521e+07
0.21                	3.229938950900e+07
0.211               	3.229938912658e+07
0.212               	3.229938874794e+07
0.213               	3.229938837306e+07
0.214               	3.229938800194e+07
0.215               	3.229938763455e+07
0.216               	3.229938727087e+07
0.217               	3.229938691088e+07
0.218               	3.229938655457e+07
0.219               	3.229938620191e+07
0.22                	3.229938585287e+07
0.221               	3.229938550745e+07
0.222               	3.229938516560e+07
0.223               	3.229938482731e+07
0.224               	3.229938449255e+07
0.225               	3.229938416129e+07
0.226               	3.229938383351e+07
0.227               	3.229938350917e+07
0.228               	3.229938318826e+07
0.229               	3.229938287074e+07
0.23                	3.229938255658e+07
0.231               	3.229938224575e+07
0.232               	3.229938193823e+07
0.233               	3.229938163398e+07
0.234               	3.229938133298e+07
0.235               	3.229938103519e+07
0.236               	3.229938074058e+07
0.237               	3.229938044912e+07
0.238               	3.229938016079e+07
0.239               	3.229937987554e+07
0.24                	3.229937959335e+07
0.241               	3.229937931419e+07
0.242               	3.229937903803e+07
0.243               	3.229937876483e+07
0.244               	3.229937849456e+07
0.245               	3.229937822720e+07
0.246               	3.229937796270e+07
0.247               	3.229937770104e+07
0.248               	3.229937744220e+07
0.249               	3.229937718613e+07
0.25                	3.229937693280e+07
0.251               	3.229937668219e+07
0.252               	3.229937643427e+07
0.253               	3.229937618899e+07
0.254               	3.229937594634e+07
0.255               	3.229937570629e+07
0.256               	3.229937546879e+07
0.257               	3.229937523383e+07
0.258               	3.229937500137e+07
0.259               	3.229937477139e+07
0.26                	3.229937454384e+07
0.261               	3.229937431871e+07
0.262               	3.229937409597e+07
0.263               	3.229937387558e+07
0.264               	3.229937365751e+07
0.265               	3.229937344175e+07
0.266               	3.229937322826e+07
0.267               	3.229937301700e+07
0.268               	3.229937280797e+07
0.269               	3.229937260111e+07
0.27                	3.229937239642e+07
0.271               	3.229937219386e+07
0.272               	3.229937199340e+07
0.273               	3.229937179502e+07
0.274               	3.229937159870e+07
0.275               	3.229937140440e+07
0.276               	3.229937121209e+07
0.277               	3.229937102176e+07
0.278               	3.229937083338e+07
0.279               	3.229937064692e+07
0.28                	3.229937046236e+07
0.281               	3.229937027966e+07
0.282               	3.229937009882e+07
0.283               	3.229936991980e+07
0.284               	3.229936974257e+07
0.285               	3.229936956712e+07
0.286               	3.229936939342e+07
0.287               	3.229936922145e+07
0.288               	3.229936905117e+07
0.289               	3.229936888258e+07
0.29                	3.229936871565e+07
0.291               	3.229936855034e+07
0.292               	3.229936838665e+07
0.293               	3.229936822454e+07
0.294               	3.229936806400e+07
0.295               	3.229936790501e+07
0.296               	3.229936774753e+07
0.297               	3.229936759155e+07
0.298               	3.229936743705e+07
0.299               	3.229936728400e+07
0.3                 	3.229936713239e+07
0.301               	3.229936698218e+07
0.302               	3.229936683337e+07
0.303               	3.229936668593e+07
0.304               	3.229936653983e+07
0.305               	3.229936639506e+07
0.306               	3.229936625159e+07
0.307               	3.229936610941e+07
0.308               	3.229936596850e+07
0.309               	3.229936582882e+07
0.31                	3.229936569037e+07
0.311               	3.229936555311e+07
0.312               	3.229936541704e+07
0.313               	3.229936528212e+07
0.314               	3.229936514835e+07
0.315               	3.229936501568e+07
0.316               	3.229936488412e+07
0.317               	3.229936475363e+07
0.318               	3.229936462419e+07
0.319               	3.229936449579e+07
0.32                	3.229936436839e+07
0.321               	3.229936424199e+07
0.322               	3.229936411655e+07
0.323               	3.229936399207e+07
0.324               	3.229936386850e+07
0.325               	3.229936374584e+07
0.326               	3.229936362406e+07
0.327               	3.229936350314e+07
0.328               	3.229936338305e+07
0.329               	3.229936326377e+07
0.33                	3.229936314529e+07
0.331               	3.229936302757e+07
0.332               	3.229936291059e+07
0.333               	3.229936279433e+07
0.334               	3.229936267876e+07
0.335               	3.229936256387e+07
0.336               	3.229936244961e+07
0.337               	3.229936233598e+07
0.338               	3.229936222293e+07
0.339               	3.229936211045e+07
0.34                	3.229936199851e+07
0.341               	3.229936188708e+07
0.342               	3.229936177613e+07
0.343               	3.229936166564e+07
0.344               	3.229936155557e+07
0.345               	3.229936144590e+07
0.346               	3.229936133658e+07
0.347               	3.229936122760e+07
0.348               	3.229936111893e+07
0.349               	3.229936101051e+07
0.35                	3.229936090234e+07
0.351               	3.229936079436e+07
0.352               	3.229936068654e+07
0.353               	3.229936057886e+07
0.354               	3.229936047126e+07
0.355               	3.229936036372e+07
0.356               	3.229936025619e+07
0.357               	3.229936014863e+07
0.358               	3.229936004101e+07
0.359               	3.229935993327e+07
0.36                	3.229935982538e+07
0.361               	3.229935971728e+07
0.362               	3.229935960895e+07
0.363               	3.229935950031e+07
0.364               	3.229935939134e+07
0.365               	3.229935928197e+07
0.366               	3.229935917216e+07
0.367               	3.229935906185e+07
0.368               	3.229935895098e+07
0.369               	3.229935883950e+07
0.37                	3.229935872736e+07
0.371               	3.229935861448e+07
0.372               	3.229935850082e+07
0.373               	3.229935838629e+07
0.374               	3.229935827085e+07
0.375               	3.229935815442e+07
0.376               	3.229935803693e+07
0.377               	3.229935791831e+07
0.378               	3.229935779848e+07
0.379               	3.229935767737e+07
0.38                	3.229935755489e+07
0.381               	3.229935743098e+07
0.382               	3.229935730554e+07
0.383               	3.229935717848e+07
0.384               	3.229935704972e+07
0.385               	3.229935691916e+07
0.386               	3.229935678672e+07
0.387               	3.229935665228e+07
0.388               	3.229935651576e+07
0.389               	3.229935637704e+07
0.39                	3.229935623602e+07
0.391               	3.229935609259e+07
0.392               	3.229935594663e+07
0.393               	3.229935579803e+07
0.394               	3.229935564667e+07
0.395               	3.229935549242e+07
0.396               	3.229935533515e+07
0.397               	3.229935517473e+07
0.398               	3.229935501102e+07
0.399               	3.229935484388e+07
0.4                 	3.229935467317e+07
0.401               	3.229935449874e+07
0.402               	3.229935432043e+07
0.403               	3.229935413809e+07
0.404               	3.229935395154e+07
0.405               	3.229935376063e+07
0.406               	3.229935356518e+07
0.407               	3.229935336501e+07
0.408               	3.229935315994e+07
0.409               	3.229935294977e+07
0.41                	3.229935273432e+07
0.411               	3.229935251338e+07
0.412               	3.229935228674e+07
0.413               	3.229935205420e+07
0.414               	3.229935181554e+07
0.415               	3.229935157052e+07
0.416               	3.229935131892e+07
0.417               	3.229935106049e+07
0.418               	3.229935079501e+07
0.419               	3.229935052220e+07
0.42                	3.229935024181e+07
0.421               	3.229934995358e+07
0.422               	3.229934965724e+07
0.423               	3.229934935249e+07
0.424               	3.229934903904e+07
0.425               	3.229934871661e+07
0.426               	3.229934838488e+07
0.427               	3.229934804354e+07
0.428               	3.229934769226e+07
0.429               	3.229934733072e+07
0.43                	3.229934695856e+07
0.431               	3.229934657544e+07
0.432               	3.229934618099e+07
0.433               	3.229934577485e+07
0.434               	3.229934535664e+07
0.435               	3.229934492595e+07
0.436               	3.229934448240e+07
0.437               	3.229934402556e+07
0.438               	3.229934355501e+07
0.439               	3.229934307032e+07
0.44                	3.229934257104e+07
0.441               	3.229934205671e+07
0.442               	3.229934152687e+07
0.443               	3.229934098102e+07
0.444               	3.229934041867e+07
0.445               	3.229933983931e+07
0.446               	3.229933924243e+07
0.447               	3.229933862747e+07
0.448               	3.229933799391e+07
0.449               	3.229933734116e+07
0.45                	3.229933666866e+07
0.451               	3.229933597581e+07
0.452               	3.229933526201e+07
0.453               	3.229933452662e+07
0.454               	3.229933376901e+07
0.455               	3.229933298853e+07
0.456               	3.229933218451e+07
0.457               	3.229933135625e+07
0.458               	3.229933050305e+07
0.459               	3.229932962419e+07
0.46                	3.229932871893e+07
0.461               	3.229932778650e+07
0.462               	3.229932682614e+07
0.463               	3.229932583705e+07
0.464               	3.229932481840e+07
0.465               	3.229932376937e+07
0.466               	3.229932268910e+07
0.467               	3.229932157672e+07
0.468               	3.229932043132e+07
0.469               	3.229931925199e+07
0.47                	3.229931803779e+07
0.471               	3.229931678776e+07
0.472               	3.229931550091e+07
0.473               	3.229931417624e+07
0.474               	3.229931281271e+07
0.475               	3.229931140927e+07
0.476               	3.229930996484e+07
0.477               	3.229930847832e+07
0.478               	3.229930694857e+07
0.479               	3.229930537443e+07
0.48                	3.229930375474e+07
0.481               	3.229930208827e+07
0.482               	3.229930037379e+07
0.483               	3.229929861004e+07
0.484               	3.229929679573e+07
0.485               	3.229929492953e+07
0.486               	3.229929301008e+07
0.487               	3.229929103602e+07
0.488               	3.229928900593e+07
0.489               	3.229928691837e+07
0.49                	3.229928477185e+07
0.491               	3.229928256489e+07
0.492               	3.229928029592e+07
0.493               	3.229927796340e+07
0.494               	3.229927556569e+07
0.495               	3.229927310118e+07
0.496               	3.229927056817e+07
0.497               	3.229926796496e+07
0.498               	3.229926528979e+07
0.499               	3.229926254089e+07
0.5                 	3.229925971643e+07
0.501               	3.229925681454e+07
0.502               	3.229925383333e+07
0.503               	3.229925077085e+07
0.504               	3.229924762513e+07
0.505               	3.229924439414e+07
0.506               	3.229924107582e+07
0.507               	3.229923766806e+07
0.508               	3.229923416872e+07
0.509               	3.229923057559e+07
0.51                	3.229922688645e+07
0.511               	3.229922309901e+07
0.512               	3.229921921094e+07
0.513               	3.229921521987e+07
0.514               	3.229921112337e+07
0.515               	3.229920691897e+07
0.516               	3.229920260415e+07
0.517               	3.229919817634e+07
0.518               	3.229919363292e+07
0.519               	3.229918897122e+07
0.52                	3.229918418851e+07
0.521               	3.229917928202e+07
0.522               	3.229917424891e+07
0.523               	3.229916908630e+07
0.524               	3.229916379124e+07
0.525               	3.229915836074e+07
0.526               	3.229915279175e+07
0.527               	3.229914708114e+07
0.528               	3.229914122574e+07
0.529               	3.229913522233e+07
0.53                	3.229912906761e+07
0.531               	3.229912275823e+07
0.532               	3.229911629076e+07
0.533               	3.229910966172e+07
0.534               	3.229910286758e+07
0.535               	3.229909590471e+07
0.536               	3.229908876944e+07
0.537               	3.229908145803e+07
0.538               	3.229907396667e+07
0.539               	3.229906629146e+07
0.54                	3.229905842846e+07
0.541               	3.229905037364e+07
0.542               	3.229904212291e+07
0.543               	3.229903367210e+07
0.544               	3.229902501696e+07
0.545               	3.229901615317e+07
0.546               	3.229900707634e+07
0.547               	3.229899778200e+07
0.548               	3.229898826559e+07
0.549               	3.229897852247e+07
0.55                	3.229896854795e+07
0.551               	3.229895833723e+07
0.552               	3.229894788542e+07
0.553               	3.229893718757e+07
0.554               	3.229892623863e+07
0.555               	3.229891503347e+07
0.556               	3.229890356687e+07
0.557               	3.229889183352e+07
0.558               	3.229887982803e+07
0.559               	3.229886754490e+07
0.56                	3.229885497857e+07
0.561               	3.229884212334e+07
0.562               	3.229882897346e+07
0.563               	3.229881552306e+07
0.564               	3.229880176618e+07
0.565               	3.229878769676e+07
0.566               	3.229877330864e+07
0.567               	3.229875859558e+07
0.568               	3.229874355120e+07
0.569               	3.229872816904e+07
0.57                	3.229871244254e+07
0.571               	3.229869636503e+07
0.572               	3.229867992972e+07
0.573               	3.229866312973e+07
0.574               	3.229864595806e+07
0.575               	3.229862840761e+07
0.576               	3.229861047115e+07
0.577               	3.229859214135e+07
0.578               	3.229857341076e+07
0.579               	3.229855427183e+07
0.58                	3.229853471686e+07
0.581               	3.229851473807e+07
0.582               	3.229849432753e+07
0.583               	3.229847347720e+07
0.584               	3.229845217891e+07
0.585               	3.229843042438e+07
0.586               	3.229840820519e+07
0.587               	3.229838551281e+07
0.588               	3.229836233856e+07
0.589               	3.229833867364e+07
0.59                	3.229831450913e+07
0.591               	3.229828983595e+07
0.592               	3.229826464492e+07
0.593               	3.229823892670e+07
0.594               	3.229821267181e+07
0.595               	3.229818587066e+07
0.596               	3.229815851348e+07
0.597               	3.229813059039e+07
0.598               	3.229810209135e+07
0.599               	3.229807300619e+07
0.6                 	3.229804332458e+07
0.601               	3.229801303605e+07
0.602               	3.229798212998e+07
0.603               	3.229795059559e+07
0.604               	3.229791842196e+07
0.605               	3.229788559801e+07
0.606               	3.229785211250e+07
0.607               	3.229781795406e+07
0.608               	3.229778311112e+07
0.609               	3.229774757197e+07
0.61                	3.229771132476e+07
0.611               	3.229767435744e+07
0.612               	3.229763665781e+07
0.613               	3.229759821351e+07
0.614               	3.229755901201e+07
0.615               	3.229751904060e+07
0.616               	3.229747828640e+07
0.617               	3.229743673638e+07
0.618               	3.229739437730e+07
0.619               	3.229735119577e+07
0.62                	3.229730717822e+07
0.621               	3.229726231089e+07
0.622               	3.229721657984e+07
0.623               	3.229716997096e+07
0.624               	3.229712246993e+07
0.625               	3.229707406228e+07
0.626               	3.229702473331e+07
0.627               	3.229697446818e+07
0.628               	3.229692325181e+07
0.629               	3.229687106895e+07
0.63                	3.229681790417e+07
0.631               	3.229676374182e+07
0.632               	3.229670856606e+07
0.633               	3.229665236085e+07
0.634               	3.229659510995e+07
0.635               	3.229653679691e+07
0.636               	3.229647740509e+07
0.637               	3.229641691764e+07
0.638               	3.229635531748e+07
0.639               	3.229629258735e+07
0.64                	3.229622870976e+07
0.641               	3.229616366701e+07
0.642               	3.229609744120e+07
0.643               	3.229603001418e+07
0.644               	3.229596136761e+07
0.645               	3.229589148292e+07
0.646               	3.229582034132e+07
0.647               	3.229574792379e+07
0.648               	3.229567421110e+07
0.649               	3.229559918376e+07
0.65                	3.229552282210e+07
0.651               	3.229544510617e+07
0.652               	3.229536601581e+07
0.653               	3.229528553064e+07
0.654               	3.229520363001e+07
0.655               	3.229512029306e+07
0.656               	3.229503549868e+07
0.657               	3.229494922551e+07
0.658               	3.229486145196e+07
0.659               	3.229477215620e+07
0.66                	3.229468131613e+07
0.661               	3.229458890942e+07
0.662               	3.229449491349e+07
0.663               	3.229439930549e+07
0.664               	3.229430206233e+07
0.665               	3.229420316068e+07
0.666               	3.229410257692e+07
0.667               	3.229400028718e+07
0.668               	3.229389626736e+07
0.669               	3.229379049304e+07
0.67                	3.229368293959e+07
0.671               	3.229357358209e+07
0.672               	3.229346239535e+07
0.673               	3.229334935391e+07
0.674               	3.229323443204e+07
0.675               	3.229311760374e+07
0.676               	3.229299884275e+07
0.677               	3.229287812249e+07
0.678               	3.229275541615e+07
0.679               	3.229263069660e+07
0.68                	3.229250393646e+07
0.681               	3.229237510805e+07
0.682               	3.229224418340e+07
0.683               	3.229211113425e+07
0.684               	3.229197593208e+07
0.685               	3.229183854805e+07
0.686               	3.229169895303e+07
0.687               	3.229155711761e+07
0.688               	3.229141301208e+07
0.689               	3.229126660641e+07
0.69                	3.229111787031e+07
0.691               	3.229096677316e+07
0.692               	3.229081328403e+07
0.693               	3.229065737172e+07
0.694               	3.229049900470e+07
0.695               	3.229033815114e+07
0.696               	3.229017477888e+07
0.697               	3.229000885548e+07
0.698               	3.228984034816e+07
0.699               	3.228966922385e+07
0.7                 	3.228949544915e+07
0.701               	3.228931899034e+07
0.702               	3.228913981338e+07
0.703               	3.228895788392e+07
0.704               	3.228877316727e+07
0.705               	3.228858562844e+07
0.706               	3.228839523208e+07
0.707               	3.228820194255e+07
0.708               	3.228800572384e+07
0.709               	3.228780653965e+07
0.71                	3.228760435332e+07
0.711               	3.228739912787e+07
0.712               	3.228719082597e+07
0.713               	3.228697940997e+07
0.714               	3.228676484186e+07
0.715               	3.228654708331e+07
0.716               	3.228632609563e+07
0.717               	3.228610183981e+07
0.718               	3.228587427647e+07
0.719               	3.228564336591e+07
0.72                	3.228540906804e+07
0.721               	3.228517134247e+07
0.722               	3.228493014842e+07
0.723               	3.228468544479e+07
0.724               	3.228443719009e+07
0.725               	3.228418534250e+07
0.726               	3.228392985984e+07
0.727               	3.228367069956e+07
0.728               	3.228340781877e+07
0.729               	3.228314117420e+07
0.73                	3.228287072222e+07
0.731               	3.228259641885e+07
0.732               	3.228231821972e+07
0.733               	3.228203608012e+07
0.734               	3.228174995495e+07
0.735               	3.228145979876e+07
0.736               	3.228116556570e+07
0.737               	3.228086720959e+07
0.738               	3.228056468383e+07
0.739               	3.228025794149e+07
0.74                	3.227994693522e+07
0.741               	3.227963161732e+07
0.742               	3.227931193971e+07
0.743               	3.227898785393e+07
0.744               	3.227865931112e+07
0.745               	3.227832626205e+07