/*--------------------------------*- C++ -*----------------------------------*\
  =========                 |
  \\      /  F ield         | OpenFOAM: The Open Source CFD Toolbox
   \\    /   O peration     | Website:  https://openfoam.org
    \\  /    A nd           | Version:  12
     \\/     M anipulation  |
\*---------------------------------------------------------------------------*/
FoamFile
{
    format      ascii;
    class       volScalarField;
    location    "0.0069";
    object      nut;
}
// * * * * * * * * * * * * * * * * * * * * * * * * * * * * * * * * * * * * * //

dimensions      [0 2 -1 0 0 0 0];

internalField   nonuniform List<scalar> 
75962
(
4.9021585324410790394e-07
5.4312004638239071154e-07
6.2119494674403518431e-07
7.8290826189044090316e-07
9.1725420484914840013e-07
9.7508756058967931875e-07
1.0090563987933321378e-06
1.0736974012010574393e-06
1.2080586071012020228e-06
1.3149615751898767945e-06
1.3663746218829436563e-06
1.4208936695387100245e-06
1.5065623131253270858e-06
1.6011222236867169772e-06
1.6862244323261940332e-06
1.7656513449547331763e-06
1.8521523728477796599e-06
1.9528331973908271435e-06
2.0586826238768671892e-06
2.1471789744791522688e-06
2.2018429254621183038e-06
2.228911137184922129e-06
2.255112394442420638e-06
2.3104487655720408549e-06
2.4458291860921137113e-06
2.6035407361524194513e-06
2.7229793507305873769e-06
2.7959031127161922458e-06
2.8310908154000453163e-06
2.8500917525523008209e-06
2.8797280058618297475e-06
2.9559144500435625332e-06
3.1345985035875191981e-06
3.2976577151584966191e-06
3.4065945243181864039e-06
3.4834713683006383403e-06
3.5583297724248322209e-06
3.6397335904752538229e-06
3.715017703034656732e-06
3.7696280668086909809e-06
3.8039840545564984115e-06
3.8308849328681791313e-06
3.8605498233061385946e-06
3.89245062238395943e-06
3.9203435327665431305e-06
3.9408680971763383191e-06
3.9555298728106914381e-06
3.9734388321565081652e-06
4.0114554403820692238e-06
4.1051598774937136192e-06
4.2922459228561407694e-06
4.4940774173363123333e-06
4.6658426782686113955e-06
4.7797057077656235593e-06
4.8357271916788708465e-06
4.8553837041917872059e-06
4.8639253499286772635e-06
4.8782843159505889856e-06
4.9065980815154727889e-06
4.9520620682789182401e-06
5.0144028168667186874e-06
5.0883454904350146323e-06
5.1629607631322256797e-06
5.2242329474289113045e-06
5.2619331631689649558e-06
5.2788011084814310441e-06
5.292009835092147551e-06
5.3230302901837172971e-06
5.4159171867974133103e-06
5.6198927824679539855e-06
5.8002221065333269928e-06
5.9206156234396864756e-06
5.9821912167852914303e-06
6.0033194934516405744e-06
6.0057691027130036379e-06
6.0041520436344808685e-06
6.0047282222411210232e-06
6.0144153546520196722e-06
6.053163167328820547e-06
6.1549456205455282156e-06
6.2721502228913419979e-06
6.3787289249047513719e-06
6.4584796650233919883e-06
6.5010541272512863381e-06
6.5119215335912259692e-06
6.5102065956898348987e-06
6.5121362739184179773e-06
6.5420443898871189745e-06
6.6724387460315108981e-06
6.8453149032682035409e-06
6.9515853423439445544e-06
7.0067296137606668554e-06
7.0338818947707570733e-06
7.0497267451958691245e-06
7.0614464818722993099e-06
7.0705357011596861637e-06
7.0802596694600023351e-06
7.1009218629687684813e-06
7.1540956110929822988e-06
7.2893945375875063077e-06
7.4414399073370297993e-06
7.552005358269564875e-06
7.6056319439532127746e-06
7.6159872753676607004e-06
7.6112903838860894548e-06
7.6086212646804303941e-06
7.6297359464562345359e-06
7.7433636978939587565e-06
7.9461049477923623516e-06
8.1039526816278526048e-06
8.2196412871480321286e-06
8.2986977510911050086e-06
8.3443429095188021723e-06
8.3624007751332007254e-06
8.3631415566777051281e-06
8.3591595167731450402e-06
8.3587958993661833198e-06
8.3787373798281331993e-06
8.4550847769141141368e-06
8.5203157421683792553e-06
8.5434871428673886005e-06
8.5409099218796662986e-06
8.5282898510421007918e-06
8.4874324554671834952e-06
8.422193888030893278e-06
8.383971819898474164e-06
8.3698412202374224041e-06
8.3691549260536438976e-06
8.4064799596997683711e-06
8.577176059162731431e-06
8.8168458529645002262e-06
8.9632195467912596077e-06
9.0303869681090793401e-06
9.0632634604700551301e-06
9.1166106920709537483e-06
9.2502378677886065245e-06
9.4560668740648512638e-06
9.6502372070568963948e-06
9.7901764977193762548e-06
9.8595021357230231074e-06
9.8713050720680468338e-06
9.8578790465960398264e-06
9.7998897532081333245e-06
9.7189993896077561349e-06
9.6911268525901920708e-06
9.694746542587542038e-06
9.7744880757532734048e-06
1.0027707957357400999e-05
1.0222963370181774222e-05
1.0306335890677126893e-05
1.0323127011588933687e-05
1.031722585481705143e-05
1.0309463761590091725e-05
1.0304769158403807852e-05
1.0300964766151295772e-05
1.0290845206990647051e-05
1.0257753289798367231e-05
1.0143137023380973047e-05
9.9894411376647159438e-06
9.8967038316223579535e-06
9.857120997759374217e-06
9.8461516512346492093e-06
9.8459023560912048125e-06
9.8729466071158886474e-06
9.915391390567646193e-06
9.9382262283063555608e-06
9.9463791360014915062e-06
9.9449185716869267673e-06
9.9393324414231489785e-06
9.9318952063991883277e-06
9.9202510618805321991e-06
9.8931396225152435086e-06
9.8468542309707953641e-06
9.8065342666829004509e-06
9.7750735885738929061e-06
9.7526329225676622228e-06
9.7378725275426062887e-06
9.7284191302488714527e-06
9.7212809779334340376e-06
9.7163350521715505703e-06
9.7194240256208250413e-06
9.7483685832162557519e-06
9.8011237684261870521e-06
9.8446606845225982093e-06
9.8759127900878193026e-06
9.894779736233177034e-06
9.9027522114970353834e-06
9.9030406782910306268e-06
1.0484737695060426284e-05
1.0498551233158802767e-05
1.0512792023120965548e-05
1.0526258648270894099e-05
1.0538140669806913221e-05
1.0547854694112256883e-05
1.0555175494389585614e-05
1.0560363944834949394e-05
1.0564184505366767405e-05
1.0567305351699782262e-05
1.0570674476449643651e-05
1.0575613509756956709e-05
1.0582869332842091424e-05
1.0593036804902280823e-05
1.0606409452416623091e-05
1.0622578178213354033e-05
1.064110379352304386e-05
1.0661094328026214875e-05
1.0681680414138987139e-05
1.0701758107027562814e-05
1.0720557101932298279e-05
1.0737529669050585709e-05
1.0751808394162398955e-05
1.0762782473651093845e-05
1.0769847645654011641e-05
1.0772978492647518079e-05
1.0772418241840294774e-05
1.0768799779751661556e-05
1.0762965174526311753e-05
1.0756083144872700665e-05
1.0748538605725338715e-05
1.0739799833777221121e-05
1.0730310809700349843e-05
1.0721411234070392937e-05
1.0713020917560486919e-05
1.0704410060430846719e-05
1.0694496337361321812e-05
1.0682194187756880016e-05
1.0668549899610357823e-05
1.065425806189880531e-05
1.0639412451940869481e-05
1.0624458662984400366e-05
1.0609386493588812876e-05
1.0594602568219271591e-05
1.0580126252118665585e-05
1.0566257883123525102e-05
1.0552873610914620238e-05
1.0540062384418007394e-05
1.0527600593598504736e-05
1.0515489078431326892e-05
1.0503491904432501547e-05
1.0491590083364193863e-05
1.0479620599409639827e-05
1.0467696685773680214e-05
1.045578881884081213e-05
1.0444104143399076163e-05
1.0432568620104382367e-05
1.0421337194928072503e-05
1.0410152365221380296e-05
1.0399107498965670055e-05
1.0387870462132406388e-05
1.0376647397083848406e-05
1.0365217735150044208e-05
1.0353813754104304907e-05
1.0342190785670343339e-05
1.0330449807733340118e-05
1.0318427896601359235e-05
1.0306291645609962806e-05
1.0294038155625626641e-05
1.0281839968969388235e-05
1.02696732741472977e-05
1.0257585393890239787e-05
1.0245461142687938415e-05
1.0233317885116289473e-05
1.0221050853880755637e-05
1.0208820054320965872e-05
1.0196442501528824078e-05
1.0184057760203794982e-05
1.0171336845333055961e-05
1.015842553491411255e-05
1.0145189532726946134e-05
1.0131851796281421171e-05
1.0118529930832297669e-05
1.0105281050283981476e-05
1.009224695517721696e-05
1.0079296299367070642e-05
1.006653269768442847e-05
1.0053847005068367769e-05
1.0041275732656351812e-05
1.0028708669270658589e-05
1.0016204411555050457e-05
1.0003594867961886742e-05
9.9911242286235341434e-06
9.9784661126734641907e-06
9.9659658894096668426e-06
9.9531906947501918491e-06
9.9405180874025058404e-06
9.9276306073503838576e-06
9.9149433613332335527e-06
9.9021809574299785836e-06
9.8897577550353576103e-06
9.8771948800024997187e-06
9.8649694894953950125e-06
9.8524506805819378214e-06
9.8402335315301299836e-06
9.8276629427256289678e-06
9.8154067503643319521e-06
9.8027675714253958023e-06
9.790521845285277361e-06
9.7778341572962793456e-06
9.7655306065108034216e-06
9.7527210151246319236e-06
9.7401853900875299316e-06
9.727238024003983266e-06
9.7146336342032090844e-06
9.7017507820299099921e-06
9.6893593220087858149e-06
9.6765863254343814431e-06
9.664273153506138897e-06
9.6515086573251100953e-06
9.6392489127553352221e-06
9.6267124272204758576e-06
9.6148514434528807631e-06
9.6026861915064401211e-06
9.5912102731365053536e-06
9.5791657584561799681e-06
9.5676374384745698556e-06
9.5553484877027239841e-06
9.5434182747063000976e-06
9.5307053422465426765e-06
9.518460749703892246e-06
9.5055687882083471894e-06
9.4932839341256554058e-06
9.4804619873865608233e-06
9.4681557154538010927e-06
9.455282791248349915e-06
9.4428732516148725437e-06
9.4298369072971214324e-06
9.4173793695422144295e-06
9.4043711534702675875e-06
9.3920800761611755221e-06
9.3793152656459336972e-06
9.3673548014176026273e-06
9.3548735971968172528e-06
9.3432110530733792437e-06
9.3309861635596626157e-06
9.3195547341889569662e-06
9.3075232872128751743e-06
9.2962733491145756393e-06
9.2843900244536867465e-06
9.2732491294576292648e-06
9.2613517098305895127e-06
9.2500076082601704263e-06
9.2377380767170618115e-06
9.2258781861876613229e-06
9.2132093415481769027e-06
9.2010987959713348803e-06
9.1883418980536840187e-06
9.1763291963387320254e-06
9.1637267696457957528e-06
9.1518865558168040674e-06
9.1395239480436242735e-06
9.1279094189785021566e-06
9.1158049883650575646e-06
9.1045094731271478887e-06
9.0926756488119132263e-06
9.0815929901178838926e-06
9.0698390599603027321e-06
9.0587185666612616696e-06
9.0467887238650614086e-06
9.0355611352740249916e-06
9.0235235358671207734e-06
9.0123112706239775143e-06
9.0003127469397469558e-06
8.98923442760671604e-06
8.9773809608394877676e-06
8.9664077455011274197e-06
8.9546734944049814758e-06
8.943681982022641709e-06
8.9319089718040955961e-06
8.9207747699724341129e-06
8.9089235537353717124e-06
8.8977649835821525021e-06
8.8858925077551950385e-06
8.874851513037234e-06
8.8630917467159810923e-06
8.8522355034819730376e-06
8.8407305986550674805e-06
8.8300733932524131737e-06
8.8187757001559901216e-06
8.8082395733910845198e-06
8.7970777453363111187e-06
8.7866369224778161247e-06
8.775625866041055593e-06
8.7653328005452208534e-06
8.7543963661604095515e-06
8.7442050892277182431e-06
8.7332034903160968574e-06
8.7229598357168078277e-06
8.7118197979865891336e-06
8.7014921385114856085e-06
8.6903820521325398572e-06
8.6801045283440406738e-06
8.6691809232169948947e-06
8.6590569143531551517e-06
8.6481864327945435518e-06
8.6380423435514397292e-06
8.6269811154358322765e-06
8.6165538985663855861e-06
8.6052358910416393631e-06
8.594581914907791558e-06
8.5832382485645170516e-06
8.5726938390901932194e-06
8.5615542004518804239e-06
8.5513629370619161004e-06
8.54045476170336125e-06
8.5305297360498980529e-06
8.5198486933931381318e-06
8.5099915725023017306e-06
8.4994452247851038642e-06
8.4896075670671858316e-06
8.4790948738257480556e-06
8.4693329820648267741e-06
8.4588320694779319707e-06
8.4491367928123424768e-06
8.4386768503566507118e-06
8.4289728984981272071e-06
8.4184120816407116423e-06
8.4086550744315039294e-06
8.3979911325159077747e-06
8.3880809709638154957e-06
8.3773954181009313227e-06
8.367559135182816641e-06
8.3569379510126001504e-06
8.3473200198915796679e-06
8.3368873501509563312e-06
8.3274513156149933518e-06
8.3171699014457872403e-06
8.3078337028142146178e-06
8.2977176218093751889e-06
8.2884854310163431988e-06
8.2784671836706380039e-06
8.269348278381615205e-06
8.2593110205684323893e-06
8.2502369578395014785e-06
8.2401736557231689288e-06
8.2310801143404135687e-06
8.2211028878208909036e-06
8.2120256521235208947e-06
8.2021468684452843433e-06
8.1933383229667990311e-06
8.1836502316550517448e-06
8.1751606965325395999e-06
8.165839461919616597e-06
5.1397776392005913735e-07
5.991282839148665327e-07
6.9430825140242231889e-07
8.4498608316898760276e-07
9.5655480326252021151e-07
1.0063731407052658763e-06
1.0459786208340534081e-06
1.1299620588807514122e-06
1.2973484361055451736e-06
1.4236133942077800445e-06
1.4819103029979486454e-06
1.5135112602696518497e-06
1.5764585020900382142e-06
1.6991866241683723024e-06
1.78838153207338294e-06
1.8391160695824747539e-06
1.8993244669623236514e-06
2.0013561773140054613e-06
2.1261954663702227864e-06
2.2311905902773870701e-06
2.2927195022195813261e-06
2.3249902505201864078e-06
2.3674530278895431576e-06
2.4634276212526336409e-06
2.6086388153566163101e-06
2.7433453375920727318e-06
2.8395354935118857107e-06
2.8928599672846276516e-06
2.9186495937376654348e-06
2.9431272132122374118e-06
2.9939640674275308137e-06
3.1227955665141432753e-06
3.3268577595239856424e-06
3.52490910249735329e-06
3.6748223153006510693e-06
3.7526973478413229838e-06
3.7788781502157698703e-06
3.798463469352656316e-06
3.8428866021153213961e-06
3.9121393312086248954e-06
3.9753625789799396938e-06
4.0202136690530483959e-06
4.0525200491251914099e-06
4.0786500745095770999e-06
4.0989025724170191577e-06
4.1128098715705136966e-06
4.1247113502957190683e-06
4.1457293576886424942e-06
4.1928162969028199568e-06
4.3097630930099743059e-06
4.5116954187939337643e-06
4.7249095728590581261e-06
4.8994366927806278484e-06
5.0073667571054387868e-06
5.0547485198001890577e-06
5.0688409040978422667e-06
5.0775577710780927458e-06
5.0983833648248605601e-06
5.1407645814902136786e-06
5.2005583524222852385e-06
5.2720043471041717962e-06
5.3473535280046102103e-06
5.4172590746108795066e-06
5.4720054737760923805e-06
5.5049751990439272872e-06
5.5190524561953229718e-06
5.5287459275059873607e-06
5.5523233955077526603e-06
5.6245879853751782536e-06
5.8363690984222434493e-06
6.078695127470342713e-06
6.2481833068610157251e-06
6.3435118539721516002e-06
6.3829857289567690549e-06
6.3919255538454180769e-06
6.3904461772636906219e-06
6.3885226251427404309e-06
6.3899748446756820261e-06
6.4021292982655467904e-06
6.4484008607854325897e-06
6.5581223903508394104e-06
6.6645869424854379322e-06
6.7444455122465332713e-06
6.7886480836796767453e-06
6.8017459852859454882e-06
6.8005012021751878678e-06
6.8008359605002010849e-06
6.8188759910188802521e-06
6.9098425218871499951e-06
7.100005099616743076e-06
7.2418050347561675992e-06
7.3310456053124797013e-06
7.3829124495084626778e-06
7.4127480384843073575e-06
7.4303884813770661142e-06
7.4405128832015434383e-06
7.4480129158770094828e-06
7.4625670260352500748e-06
7.5015305371209921003e-06
7.6198498900442784428e-06
7.8037323456182114916e-06
7.9451230891224697061e-06
8.0223343716071427324e-06
8.0456116477284713074e-06
8.0434566347287602225e-06
8.0383371099642127704e-06
8.0434681276606495364e-06
8.0991391601196542616e-06
8.2697494851421563054e-06
8.4359496962870330494e-06
8.5587173719640813769e-06
8.641689282228437661e-06
8.6878094405053318144e-06
8.7048793646194093338e-06
8.7057946309920601727e-06
8.7044589238323856456e-06
8.7106545166355712313e-06
8.7481716541781846385e-06
8.8473874102038470052e-06
8.9239726665029971478e-06
8.959555093828838038e-06
8.9641857156423910934e-06
8.9561434499576368786e-06
8.935310651027176645e-06
8.8829541435572956969e-06
8.8397531301253190201e-06
8.8206732000900204107e-06
8.8159305868973504545e-06
8.8362763807636796916e-06
8.9619234945452575587e-06
9.202922131137550882e-06
9.357942347573377137e-06
9.4470115035978581347e-06
9.5230758290797064584e-06
9.6305578488173013976e-06
9.7881901433946632207e-06
9.9788446875383581209e-06
1.0162237384118919998e-05
1.029776321924461421e-05
1.0366187476551798607e-05
1.0377587023684438627e-05
1.036321078202089851e-05
1.03012317725022899e-05
1.0211203252705211786e-05
1.0178147814519985929e-05
1.0179009276886938844e-05
1.0248779358383505926e-05
1.0480753011384444116e-05
1.0666318983026523766e-05
1.0758062852508211185e-05
1.0802279937542983974e-05
1.0839779281896298583e-05
1.0881744891558541821e-05
1.0917490566386123309e-05
1.0931200024040863125e-05
1.0924964329124873088e-05
1.0899489435912158242e-05
1.0798341396855017338e-05
1.0621814212875814264e-05
1.051040165431849927e-05
1.0461701104825378461e-05
1.0447813909323525611e-05
1.044627046129793255e-05
1.0470326076889632439e-05
1.0505705985768729898e-05
1.0522050108394589754e-05
1.0524494651367200603e-05
1.051996897072335593e-05
1.0512698768117463915e-05
1.0502917589655271484e-05
1.0482420144729256422e-05
1.0435380233465125108e-05
1.0385616613594261535e-05
1.0346300319843719712e-05
1.0317380950542935655e-05
1.0297894004006124014e-05
1.0285622905234051945e-05
1.0277107172627601022e-05
1.0270259239335151246e-05
1.0266782031561982899e-05
1.0276071835976880736e-05
1.0315875826706713433e-05
1.0354959795822015742e-05
1.0379355462983910616e-05
1.0390808126842862732e-05
1.0393980526179198937e-05
1.0394436123533196036e-05
1.0396839902203909879e-05
1.0404051848987348904e-05
1.1004446003064256927e-05
1.1017393106307051079e-05
1.103303215062432683e-05
1.1049719929924779597e-05
1.1066139142639046255e-05
1.1080690771047264583e-05
1.1093070109307579291e-05
1.1102718520279691834e-05
1.1109821498816710623e-05
1.1115234475805216326e-05
1.1119914018975404882e-05
1.1124663572091399909e-05
1.1130930119590109334e-05
1.1139594119164211299e-05
1.115129726695151986e-05
1.1166201573137533176e-05
1.1184126318634016189e-05
1.1204298883857328526e-05
1.1225759434437518108e-05
1.124759862239590487e-05
1.126880051342178012e-05
1.1288430182713892708e-05
1.1305950171781952468e-05
1.1320725998326291022e-05
1.1332180295895664382e-05
1.1339771210977499531e-05
1.1343581277683579162e-05
1.1343690440164213817e-05
1.1340691466592098759e-05
1.1335236971924321189e-05
1.132829438662554081e-05
1.1320623789861356573e-05
1.1312183013517300792e-05
1.1302879008898342712e-05
1.1293756794880354324e-05
1.1284877352107443749e-05
1.1275694953069466126e-05
1.1265083037742848026e-05
1.1251446111375687539e-05
1.1236565981982178184e-05
1.1220947035610816687e-05
1.1204920386503820399e-05
1.1188676703023916825e-05
1.1172463484690116985e-05
1.1156467867515015773e-05
1.1140940025472448885e-05
1.1125960584608259472e-05
1.1111642922547037703e-05
1.109786188679861241e-05
1.1084578789743157657e-05
1.1071529834256647824e-05
1.1058640972675958826e-05
1.1045704071044992717e-05
1.1032811790692368385e-05
1.1019908107575518248e-05
1.100718980548983366e-05
1.0994649129124532019e-05
1.0982417842139407445e-05
1.0970408760312019454e-05
1.0958566404055839895e-05
1.0946701997699184288e-05
1.0934726632265663138e-05
1.0922578223215522163e-05
1.0910343039762083504e-05
1.0898026049819871605e-05
1.0885705880906011814e-05
1.0873237441388351168e-05
1.0860708322225013834e-05
1.0847964435396168317e-05
1.0835223471128001236e-05
1.0822386236180100774e-05
1.0809691309569457445e-05
1.0796969077839111158e-05
1.0784345662473699857e-05
1.0771612414274246244e-05
1.0758880011654610819e-05
1.0746059044058044199e-05
1.0733207041824886023e-05
1.0720171755420149101e-05
1.0706931001742061048e-05
1.0693308212194319842e-05
1.0679490424940074413e-05
1.066538080008137891e-05
1.0651397031139381942e-05
1.0637328379243112349e-05
1.0623607595151181768e-05
1.0609848851427133208e-05
1.0596423703404662367e-05
1.0582917720101649717e-05
1.0569658573424123971e-05
1.0556262945147138721e-05
1.0543135292784463071e-05
1.0529810908684549727e-05
1.0516788595507958108e-05
1.0503396813251281931e-05
1.0490238141642088381e-05
1.0476625187821896168e-05
1.0463280240902426941e-05
1.0449595489393356934e-05
1.0436261141636018297e-05
1.0422676037861393933e-05
1.040951897380336261e-05
1.0396073961181981818e-05
1.0383103570004335737e-05
1.0369724224260872382e-05
1.0356830819507535131e-05
1.0343468851156353735e-05
1.0330636261748890589e-05
1.0317314447404076944e-05
1.0304549262161928511e-05
1.0291198705281734698e-05
1.027832591616211947e-05
1.0264798520776592937e-05
1.0251692720845794046e-05
1.0238030672334434384e-05
1.0224897298769199379e-05
1.0211339658803852517e-05
1.01984319545953491e-05
1.0185030690276795169e-05
1.0172221609287969736e-05
1.0158830766163149607e-05
1.0146071257943216465e-05
1.0132881063060434555e-05
1.0120505973291621889e-05
1.0107657223195782515e-05
1.0095597282075365227e-05
1.0082799704325795165e-05
1.0070633548595281118e-05
1.005758223701676522e-05
1.0045069248520633898e-05
1.0031663635311020686e-05
1.0018892810096166065e-05
1.0005331040683922877e-05
9.9925109241602745862e-06
9.9789687396294893485e-06
9.9660832596958660596e-06
9.9524261220009667726e-06
9.9394001965704753602e-06
9.9255770640767861974e-06
9.9125374450652915792e-06
9.8988138738744927195e-06
9.8859724584929965986e-06
9.8725086001935103834e-06
9.8599908096910031781e-06
9.8467970161810792102e-06
9.8346102352130480585e-06
9.8217065349913450283e-06
9.8097784816019006074e-06
9.7971023512945687624e-06
9.7853641237335169036e-06
9.7728422461487762432e-06
9.7612001491930805658e-06
9.7486376075677067633e-06
9.7367649977786499381e-06
9.7237736164118807617e-06
9.711356019002944829e-06
9.6979227185649942374e-06
9.685248800257907162e-06
9.6717816468471007124e-06
9.6592919460863823299e-06
9.6460489290660198527e-06
9.6337821184212876367e-06
9.620743332656089822e-06
9.6086274363409728986e-06
9.5957664095130191698e-06
9.5838888046202732159e-06
9.5712585649845955348e-06
9.5595614027046546323e-06
9.5469917054776962052e-06
9.535286066330142166e-06
9.5226035002897654067e-06
9.5108661420477329191e-06
9.4981688734899120225e-06
9.4864814923322248786e-06
9.4738265615439263732e-06
9.4622183493250135053e-06
9.4496177189230984338e-06
9.4380588895014347724e-06
9.4255217645919188766e-06
9.4139368894418556569e-06
9.4013868245428548986e-06
9.3897338811733127307e-06
9.3771423787470455395e-06
9.3655083762241192501e-06
9.3529411975790546985e-06
9.3414173874218991799e-06
9.3289591021197501732e-06
9.317602416108549632e-06
9.3053472344234551756e-06
9.2941322479610760491e-06
9.2820003635464564968e-06
9.2708754023303089291e-06
9.2588766800333727701e-06
9.2479100914217337638e-06
9.2361353579192592391e-06
9.2253693420910117554e-06
9.2136937577359916818e-06
9.2029978278884084684e-06
9.1912587778956274991e-06
9.180514319237564346e-06
9.1686961605309664461e-06
9.1579494660969637721e-06
9.1462116334182961511e-06
9.13556460612287989e-06
9.1240270848179185251e-06
9.1135284219290356271e-06
9.102024824276388229e-06
9.0914380897353612844e-06
9.0796537599068370157e-06
9.0687085986786404124e-06
9.0565621595593469794e-06
9.045349845189898754e-06
9.033177490747950898e-06
9.0221186061480142737e-06
9.0102105277533031457e-06
8.9995413534945939286e-06
8.9879511134601042455e-06
8.9775805786637315073e-06
8.9661927537122887335e-06
8.9558879434037629008e-06
8.9446111710964277733e-06
8.9343154553367938559e-06
8.9230762806316922823e-06
8.9128861188158973653e-06
8.9017327376665424018e-06
8.8916614104491539572e-06
8.8805465787792577283e-06
8.8704894710833815562e-06
8.8592749263593621202e-06
8.8491092637961998993e-06
8.8377872077735005098e-06
8.8274524983025796823e-06
8.8161009479058419268e-06
8.8057942892806266414e-06
8.7944880429096514087e-06
8.7844273737217231035e-06
8.7732807072001453411e-06
8.7634350371877861097e-06
8.7524344450481959178e-06
8.7426794024916990131e-06
8.7318376702127726061e-06
8.7221235111850328086e-06
8.7113899422192039504e-06
8.7017865351044910684e-06
8.691045364608620394e-06
8.6815413157405353504e-06
8.6707992984261302597e-06
8.6612780508699877306e-06
8.6505795152595276549e-06
8.6409814047450364484e-06
8.6303044655354423272e-06
8.6208962101470359524e-06
8.6103934412828090532e-06
8.6013250696488360392e-06
8.5911968378330554969e-06
5.3627767083779367091e-07
6.0925137369451909025e-07
6.8680221303710715323e-07
8.4619811768015569638e-07
9.8809960469367906803e-07
1.0549555588105345077e-06
1.0886291869633928674e-06
1.1476811143033940016e-06
1.2928333023372396337e-06
1.4466282413145411347e-06
1.5212595954616274684e-06
1.5582850997728904814e-06
1.6256539589332704432e-06
1.7412390795005769246e-06
1.8572854109611860979e-06
1.9670443593533614462e-06
2.0802059597716069093e-06
2.1950769274842472627e-06
2.2969899793971609971e-06
2.3703030327110688892e-06
2.4109255727875149939e-06
2.4333706399149723742e-06
2.4643975841908405355e-06
2.5362536137062259422e-06
2.716676724689051164e-06
2.9028586841810264312e-06
3.0241959535035020316e-06
3.0861857966707144889e-06
3.1116413049706691596e-06
3.1291346522060883598e-06
3.1646049684165161403e-06
3.2630848136559075954e-06
3.5086844801170366547e-06
3.7262741306658155163e-06
3.8603516774272191356e-06
3.940075981295484678e-06
3.994835775204351916e-06
4.0368566578673660273e-06
4.0699179100135378628e-06
4.0993150315938453468e-06
4.1342310606863979825e-06
4.1817730561971875941e-06
4.2415287639071157569e-06
4.3034234008056794515e-06
4.3532976479103672278e-06
4.3843044652502373505e-06
4.4001132989238530958e-06
4.4127824915239072771e-06
4.4389085934072391605e-06
4.5042706171428849762e-06
4.6823434556203980835e-06
4.9250731274856532254e-06
5.1320159961021997726e-06
5.2782661207362408879e-06
5.3599604898224135783e-06
5.3935512089558169125e-06
5.4044779314277340397e-06
5.4144885345041003451e-06
5.4385274679646793702e-06
5.4960819752753070248e-06
5.5724623514895163504e-06
5.6498109328633958748e-06
5.7156656877915894651e-06
5.7611083531294485617e-06
5.7839551988668911286e-06
5.7917460146431464104e-06
5.7991384798392406889e-06
5.8218007523085987465e-06
5.9022341853498311973e-06
6.1350976463464763547e-06
6.3730292863044401018e-06
6.5284927482542019975e-06
6.608806316816392146e-06
6.6380501510058099421e-06
6.6443807987284147509e-06
6.648772872176774546e-06
6.662744619893406238e-06
6.7052292008431719846e-06
6.7947518334146885023e-06
6.8946689440211709839e-06
6.9924938747141004229e-06
7.0745718943999747822e-06
7.1281570282323946831e-06
7.1492522476199938015e-06
7.1485892129271740004e-06
7.142426404879648022e-06
7.1404317409542577964e-06
7.167973572754758954e-06
7.3108722032067012669e-06
7.5578355894427154402e-06
7.7202282866065227214e-06
7.8066605983967084611e-06
7.8438417955721803561e-06
7.8558898884383287386e-06
7.8573659824383700344e-06
7.8565584120110374739e-06
7.8599689919073196544e-06
7.8766388712175817755e-06
7.9394647892185430023e-06
8.1227551651007074145e-06
8.3077531228008682661e-06
8.4202911627085273922e-06
8.4633567296808986474e-06
8.4644774520325057011e-06
8.4507557992019816871e-06
8.4314021801494735091e-06
8.4269549953674203048e-06
8.4505610818046903972e-06
8.5724053100492933645e-06
8.7431683040852756781e-06
8.8609717281977020325e-06
8.9324088126094092986e-06
8.9665436207026374233e-06
8.9780014619669706524e-06
8.9851808439043229015e-06
9.0056040089499821198e-06
9.0731246003908581481e-06
9.1970834213941874286e-06
9.2987980570639144174e-06
9.359567641799478789e-06
9.3807859001814396753e-06
9.3775624879512499611e-06
9.3649542648839384057e-06
9.3270807063128525962e-06
9.2730497164366432791e-06
9.2438705583095539625e-06
9.2343295018150608556e-06
9.2391005774095320212e-06
9.3022421137828323399e-06
9.548868752989994645e-06
9.8534909808988430666e-06
1.0043642453193258628e-05
1.0133963295643126946e-05
1.0165963775446976896e-05
1.019248990260583633e-05
1.0258692337533874888e-05
1.0443048801390733866e-05
1.0665686460486492335e-05
1.0823077601455202427e-05
1.0897885858145133625e-05
1.0907661392173973269e-05
1.0887918487523442023e-05
1.0802483426948741415e-05
1.0696163587158448015e-05
1.0661343950212405658e-05
1.0666636087215191907e-05
1.0764804890329812177e-05
1.1067129656580999692e-05
1.1287866883076426298e-05
1.1382207051453226479e-05
1.1415561366063000889e-05
1.1445657668271858319e-05
1.1490203798942707992e-05
1.153515659354969695e-05
1.1557270593947008907e-05
1.155395898534954299e-05
1.1532193324258681555e-05
1.1443520286166885714e-05
1.1246687737311626091e-05
1.1107772991379012245e-05
1.1038185531314185451e-05
1.1012974441274695522e-05
1.1004637654982403277e-05
1.100354402199682151e-05
1.1021942757718464646e-05
1.1045690804103627775e-05
1.1062017620076648961e-05
1.1071760305150314389e-05
1.1073720995318992174e-05
1.1069199209143908177e-05
1.1061202781950988348e-05
1.1046839689430953558e-05
1.1009694085703055402e-05
1.0955110574842606323e-05
1.0914533122401209799e-05
1.0887864331471948834e-05
1.087165761044587115e-05
1.0861531075684539277e-05
1.0853586253409930641e-05
1.0846397620990136916e-05
1.0841049543414447171e-05
1.0841673274100967314e-05
1.0857506685919793312e-05
1.0878371642549481438e-05
1.0897169591847015956e-05
1.0914566666148745408e-05
1.0932173882619841809e-05
1.0951938958287446761e-05
1.097476255685992866e-05
1.1613032414171965136e-05
1.1635411526886125323e-05
1.1657923541923141786e-05
1.1678557641317666426e-05
1.1695984940267526377e-05
1.1709352082710751801e-05
1.1718645834930028571e-05
1.1724464111493231605e-05
1.1727506033364872275e-05
1.1729046658534111354e-05
1.173009686518305112e-05
1.1731855187228783208e-05
1.1735532923064359909e-05
1.1742091146101710502e-05
1.1751915227179084313e-05
1.1765029625513798549e-05
1.1781062802889205989e-05
1.179925892512177943e-05
1.1818551742869575332e-05
1.1837901230428096591e-05
1.1856532668846756209e-05
1.1873687818060487458e-05
1.1888976922921705619e-05
1.1901981971761810066e-05
1.1912519134255303388e-05
1.1920458342050871446e-05
1.1925973905783648977e-05
1.1928977873258994025e-05
1.1929552145219015231e-05
1.192790425380030282e-05
1.1924295736070120042e-05
1.1918845657565881589e-05
1.1911971666920763744e-05
1.1904057587954431296e-05
1.1895668994857856607e-05
1.1887087382787359736e-05
1.1878557254510487511e-05
1.1870086118246394165e-05
1.1861453264662574306e-05
1.1851766957974130308e-05
1.1838337541824710592e-05
1.1820232961488314871e-05
1.1801277317370894313e-05
1.1782530491721999045e-05
1.176372989563384094e-05
1.1745724817157794369e-05
1.1728141142194677764e-05
1.1711643561603876646e-05
1.1695620888103226901e-05
1.1680478186168493149e-05
1.1665404123018104451e-05
1.1650796464909089328e-05
1.1635994813927952321e-05
1.1621646988036199246e-05
1.160720366769196692e-05
1.1593365664790627963e-05
1.1579546398135807982e-05