/*--------------------------------*- C++ -*----------------------------------*\
  =========                 |
  \\      /  F ield         | OpenFOAM: The Open Source CFD Toolbox
   \\    /   O peration     | Website:  https://openfoam.org
    \\  /    A nd           | Version:  12
     \\/     M anipulation  |
\*---------------------------------------------------------------------------*/
FoamFile
{
    format      ascii;
    class       volScalarField;
    location    "0.0069";
    object      p;
}
// * * * * * * * * * * * * * * * * * * * * * * * * * * * * * * * * * * * * * //

dimensions      [1 -1 -2 0 0 0 0];

internalField   nonuniform List<scalar> 
75962
(
99226.807616144098574
99112.808679137655417
99352.348890817040228
99380.259821000043303
99497.271398749537184
99575.836779727775138
99569.792201550299069
99541.883983288207673
99490.262288548168726
99450.348910327782505
99409.628338164809975
99381.721537626261124
99486.053716832553619
99636.659967251951457
99654.320209782832535
99543.045579679877847
99453.399862887046766
99453.067858822018025
99507.16424734024622
99583.062261763741844
99665.441898325356306
99683.942450628223014
99615.2602395163849
99540.487036942271516
99527.439888949913438
99529.354218701089849
99503.420533496988355
99489.744603695406113
99497.387973020595382
99511.372547451508581
99537.425272604203201
99579.845441034296528
99603.562637212409754
99578.767979116426432
99535.768955960535095
99519.854398978015524
99530.877417783776764
99540.229840548578068
99534.231924280364183
99520.056215241202153
99509.489239095957601
99512.626120665256167
99529.085754890940734
99553.77338574953319
99574.23854883396416
99570.892752069950802
99537.223099132301286
99494.056615263252752
99477.527601127003436
99503.00329769392556
99543.614633794786641
99565.21622900555667
99562.729151536012068
99547.979483448973042
99529.832777256393456
99516.432342215761309
99505.905910722518456
99481.007500985695515
99430.606744342730963
99367.951555893829209
99329.887822274118662
99341.339503091847291
99390.379540257170447
99440.699688610664452
99459.089158913324354
99450.623955155388103
99439.022266461455729
99449.206978198621073
99478.883823651631246
99502.365779565167031
99502.827903731813421
99490.736831460540998
99488.700148687654291
99502.953105739725288
99514.373388122185133
99495.717407265721704
99442.903732786013279
99379.815724349100492
99335.967522894134163
99324.027355188562069
99338.414255278388737
99365.434884892238188
99390.168735188766732
99399.25584964355221
99385.971868696607999
99360.363513725358644
99342.730181733219069
99341.497323882344062
99346.566170386169688
99342.020765575289261
99321.656622121532564
99291.739234140113695
99258.524293301845319
99221.880680707210558
99176.264214356036973
99124.922743979463121
99083.593409260778571
99069.815069489020971
99086.628683631512104
99118.260180453435169
99143.605572458734969
99155.714095568881021
99165.928129615364014
99186.969481560328859
99213.960824436042458
99227.586824593890924
99213.575066552264616
99179.888316012904397
99151.177566117199603
99147.54175077486434
99169.416685795164085
99200.494622338519548
99222.657634519680869
99229.097138019045815
99224.795065475409501
99219.221652279535192
99218.366350561991567
99220.224990545713808
99216.024820730221109
99197.204439877677942
99164.290588581308839
99130.175145821325714
99113.334174570205505
99123.996645722232643
99155.23614702548366
99187.479359820106765
99203.547235452875611
99199.549863116029883
99184.807984082348412
99171.61002917541191
99165.657713429245632
99165.891764158033766
99167.843028276678524
99170.66760586197779
99176.256990246256464
99184.813250079547288
99193.369141585208126
99198.657285547538777
99202.21191979215655
99208.667545213087578
99219.453251239203382
99230.501534089708002
99235.378724803376826
99232.671236589478212
99227.513636154544656
99228.089644091480295
99240.45553088869201
99265.535028816229897
99300.669871816018713
99341.257721538233454
99381.902838776411954
99417.762814809451811
99443.63164332380984
99455.080789377519977
99450.502181076895795
99433.07595440246223
99410.844057253823848
99393.707845038006781
99386.180089692687034
99387.612297614323325
99393.601148433474009
99399.332616911822697
99402.679248768021353
99403.543850920861587
99402.650688061272376
99401.038902062544366
99401.422914338952978
99407.501178668826469
99421.985135613300372
99443.710374910617247
99467.253909359016689
99485.361228039328125
99493.197908296773676
99490.989553651117603
99481.952906911858008
99469.322407384956023
99454.732665235351305
99438.676048587672994
99422.449004755471833
99409.616406871195068
99404.625519011664437
99410.05958081704739
99424.856217737746192
99444.838663500690018
99464.733280487504089
99479.937704040930839
99487.812164243863663
99487.127325576118892
99491.796761448655161
99512.865986007323954
99533.297041308222106
99549.283556489710463
99559.970790177656454
99566.780304703090223
99571.412020558957011
99573.775978167861467
99571.330037664622068
99560.701522862058482
99539.996900423473562
99510.998846446484094
99479.448824608174618
99452.493318740220275
99435.293410496320575
99428.566443560237531
99428.337506694762851
99428.6084017065441
99424.625029046117561
99415.335315968608484
99403.144976677620434
99392.38552846298262
99387.190634302634862
99390.254779622904607
99402.298024485280621
99421.92072066932451
99445.930780049355235
99470.064598031356581
99489.863650647283066
99501.967411344885477
99505.233477226225659
99501.103536134076421
99493.060772101554903
99485.287691510704462
99481.244791448407341
99482.634395411048899
99489.109487843801617
99498.564867388166022
99508.262025917341816
99515.525782025404624
99519.105535137903644
99518.611892461645766
99515.240459735272452
99511.586298608221114
99510.966728809813503
99516.874060292640934
99531.399676707529579
99553.975008139459533
99581.1674561775435
99607.585479094457696
99627.854315927019343
99638.776820521001355
99640.757379784059594
99637.62077808380127
99634.803911791386781
99637.02021725292434
99646.655857519057463
99663.380739391504903
99684.901314316186472
99708.513157750305254
99732.17154194835166
99754.560277491531451
99774.595415323943598
99790.992462773516309
99802.369482137277373
99807.863480471336516
99807.82204947154969
99803.938527641352266
99798.788780063769082
99795.002826023192029
99794.41371718829032
99797.688874177038088
99804.559140331286471
99814.162358532761573
99825.201986530169961
99835.915929256763775
99844.091706513805548
99847.404118658931111
99843.997280801340821
99833.168720329282223
99815.763939456199296
99793.994320114827133
99771.175454456635634
99750.571771510672988
99734.614431802358013
99724.368123442327487
99719.520674664498074
99719.015433187392773
99721.694382071073051
99726.529363585475949
99732.712965456696111
99739.329006738233147
99745.305187138801557
99749.55488130543381
99751.430168538849102
99750.977851127041504
99748.988704062168836
99746.917408304027049
99746.340067954166443
99748.256102701561758
99752.633403981162701
99758.71434548983234
99765.543408889512648
99772.24225055729039
99778.212089188687969
99783.190491754154209
99786.903233279634151
99788.945189191508689
99788.866559927802882
99786.355740512211923
99781.339281947235577
99774.245405227658921
99765.99930181306263
99757.534662844715058
99749.517303979766439
99742.298284839082044
99735.915827123491908
99730.539900863615912
99726.86666367437283
99726.318735373730306
99730.933354929962661
99742.985410649067489
99763.863118353823666
99793.08279730178765
99827.765356024203356
99863.167764930811245
99893.827024788057315
99915.364453193746158
99925.842500002196175
99926.26246661915502
99919.947980666605872
99910.80744705061079
99901.88391913016676
99894.115585787119926
99886.462607295165071
99876.75305169596686
99863.115595602968824
99845.223076249632868
99824.674205321221962
99804.534743220778182
99788.192993972043041
99778.191335526717012
99775.490666985686403
99779.492449240977294
99788.727616908188793
99801.628122161564534
99817.221250148533727
99835.203886907402193
99855.573464491826599
99877.799867418041686
99900.239873538201209
99920.044717952187057
99933.79951958572201
99938.593158087387565
99933.026294482653611
99917.803618746474967
99895.65157662796264
99870.51889555172238
99846.43870495808369
99826.439162290844251
99812.00775430793874
99803.126555586743052
99798.875000685060513
99798.105071390920784
99799.891300618008245
99803.700434007289005
99809.159529974291218
99815.674195101935766
99822.169348131050356
99827.345770185347646
99830.09309462843521
99829.84225292285555
99826.870455363794463
99822.152461504651001
99816.842698778345948
99811.857783716506674
99807.455554986998322
99803.1815543390112
99798.117136715562083
99791.269975131232059
99782.02329751594516
99770.30864004502655
99756.617474902042886
99741.909627942106454
99727.268814694340108
99713.695904470907408
99702.244808801217005
99693.869919279997703
99689.364519554568687
99689.309763974641101
99693.858358554920414
99702.771559875458479
99715.324356488301419
99730.256922466913238
99746.011571047594771
99760.945018427402829
99773.76642056851415
99783.755093122264952
99791.093095536285546
99796.636913841706701
99801.798236773407552
99807.977955314650899
99816.083260436440469
99826.123249306474463
99837.07198568910826
99847.116582309696241
99854.113689962716307
99856.082332909718389
99851.859212930561625
99841.51216104310879
99826.39902875944972
99808.829850841662847
99791.50082074139209
99776.90820092507056
99766.895362534982269
99762.471872245863779
99763.747705216694158
99769.989044754649512
99779.890315039927373
99791.878413064230699
99804.512289361082367
99816.676205611540354
99827.689817575650522
99837.13816153028165
99844.768397500287392
99850.340174132201355
99853.510083749220939
99853.842536680764169
99850.970377243123949
99844.705936596015817
99835.250341209379258
99823.238037113333121
99809.673518172188778
99795.720838293214911
99782.30271682680177
99770.026181833149167
99759.153933973939274
99749.59781419041974
99741.072749302446027
99733.190637921332382
99725.524942116506281
99717.664828695676988
99709.212394347676309
99699.658861007672385
99688.556373602361418
99675.65303708690044
99661.080230759063852
99645.494932825458818
99629.986993898186483
99616.021823009476066
99605.230900179973105
99599.037360127491411
99598.305296911959886
99603.089226013966254
99540.972637827813742
99567.769446322694421
99594.936362947701127
99527.963825976185035
99447.302338427529321
99303.957830987623311
99240.170972501568031
99342.64429334687884
99423.850309386325534
99479.188404356638785
99507.898551460108138
99509.362934448363376
99573.02725279929291
99686.404367803450441
99701.729645640967647
99592.997065292263869
99505.355326625111047
99516.636091166117694
99557.335998857946834
99614.874524970378843
99691.457179923701915
99709.269074832292972
99622.881859366287244
99525.441146714321803
99508.736106638156343
99526.358247483120067
99506.420635895759915
99475.047418732516235
99466.184945069529931
99479.491519391260226
99521.317034751016763
99588.206320424564183
99633.96263956441544
99626.182258373111836
99596.536564845286193
99588.285366373238503
99594.843002785768476
99591.701829347977764
99575.009630050786654
99547.02717516910343
99516.007556771568488
99498.106446094665444
99508.740355370304314
99553.714440814204863
99602.482803095161216
99615.788830404620967
99587.063419116442674
99547.227019028898212
99531.494994266933645
99544.992592816153774
99563.845874681370333
99566.675383933747071
99553.256963000851101
99532.897339676215779
99516.93900807017053
99513.734758119928301
99516.338064647105057
99504.282571909730905
99463.342431681769085
99410.504923370404867
99378.690573252402828
99387.602139103473746
99432.436277683882508
99487.34744308469817
99519.133565896467189
99515.310285822415608
99496.744698477225029
99499.644987745123217
99528.043354116787668
99553.621308908332139
99552.532303602391039
99531.318958075440605
99514.388778773150989
99514.835995950474171
99520.545472377925762
99506.946591695159441
99465.85416689790145
99414.246660785924178
99377.622202378261136
99368.567731950985035
99378.832574009094969
99393.354153857842903
99401.011204710637685
99396.577495204182924
99380.966381559337606
99363.053557334089419
99353.985401622121572
99357.199339913102449
99363.349964470427949
99357.714338010933716
99333.947810425786884
99299.237316934173577
99262.594502691848902
99225.894199845934054
99185.045514392855694
99141.64692057632783
99108.363263233448379
99101.35448844867642
99122.788479715338326
99153.680132509965915
99172.852583867905196
99176.017328454356175
99176.570711580163334
99189.011107989717857
99209.236402093461948
99219.374015524837887
99207.527568130099098
99180.786726642749272
99161.426026670102146
99166.57750803748786
99194.231164896424161
99225.921383909881115
99244.356577966231271
99246.139105921931332
99239.39373999433883
99233.946939671441214
99234.563579813257093
99238.261805132729933
99237.241782253971905
99223.617872967428411
99195.951096268065157
99164.639263801276684
99145.884680005809059
99150.331165630967007
99174.882745343100396
99202.95436083227105
99216.891038153698901
99210.445632368428051
99191.935712628604961
99175.668120733331307
99170.662454973353306
99176.645186086927424
99186.494288757065078
99195.301218096385128
99203.962556503363885
99213.458518902159994
99221.992696258254
99227.166423426242545
99229.634557065714034
99232.528690173581708
99236.687245735782199
99239.558578519296134
99237.956145562580787
99233.226655649748864
99231.531232340188581
99239.92317924334202
99260.801552302014898
99290.317352842102991
99322.436424931773217
99354.189948669984005
99385.454393858788535
99417.405747290773434
99447.261462561757071
99468.210864104679786
99474.018305085905013
99465.138289294947754
99450.529840676885215
99440.22399721313559
99438.884908804669976
99443.650184388709022
99447.873292166463216
99447.125503070885316
99440.861840256853611
99431.602139195019845
99422.608509430094273
99417.073535942356102
99418.100690347579075
99428.224995174648939
99447.111046098580118
99470.111857464071363
99490.070900001635891
99500.814140805232455
99500.797386837133672
99493.172989585495088
99482.988375376211479
99473.345658263075165
99463.779629795695655
99452.415158046249417
99438.899029545020312
99425.726314523562905
99417.214921890947153
99416.416569936976884
99423.501669083460001
99435.725937628580141
99449.17738260133774
99460.081633913840051
99465.728306681281538
99464.195412261629826
99454.2897353022272
99442.612817041590461
99455.742149951547617
99473.294256505832891
99491.298500815551961
99506.505686372431228
99517.764447090725298
99525.883516548070475
99532.022294058348052
99535.654100464933435
99534.091231545171468
99523.961002875686972
99504.12158630011254
99477.457891314246808
99450.213324263837421
99429.078015781400609
99417.907672339773853
99415.869741902133683
99418.177304886907223
99419.096225561952451
99415.174656077957479
99406.540384541251115
99396.104993629793171
99387.729073595895898
99384.67283662231057
99388.639831033287919
99399.958106349440641
99417.835304373365943
99440.251388874909026
99463.863910603817203
99484.487191046253429
99498.049286684588878
99502.120271195220994
99496.973959145223489
99485.713889287711936
99473.280032766706427
99464.786242666465114
99463.572491236642236
99470.172146588476608
99482.420084170211339
99496.470712454218301
99508.208496408420615
99515.05800313524378
99515.906818681280129
99511.939302398925065
99506.464089542481815
99503.832930989388842
99508.224893729668111
99521.880693027473171
99543.955420366502949
99570.434236634129775
99595.238731742836535
99612.54003398862551
99619.419091501884395
99617.17675501483609
99610.698364431707887
99606.249588284234051
99608.93800436964375
99620.892827670453698
99640.989729409178835
99666.077649402417592
99692.496722412441159
99717.262875514323241
99738.703718787364778
99756.28258698710124
99769.974150883193943
99779.823905877463403
99785.829266549189924
99788.082977176425629
99787.12430539217894
99784.071011817679391
99780.496648056199774
99778.245319644789561
99779.181398055996397
99784.76808224459819
99795.511640570111922
99810.48760914504237
99827.074347758069052
99841.35331728500023
99849.230647058153409
99847.794980155464145
99836.237569051532773
99816.079376853682334
99790.629208406520775
99763.922065189137356
99739.63046682626009
99720.326516863045981
99707.165952339433716
99700.151441192996572
99698.625667206972139
99701.658624149626121
99708.384378848480992
99717.81872007601487
99728.632840733553167
99739.074818404886173
99747.337039192032535
99751.996358853808488
99752.746610101006809
99750.361915448433137
99746.357993367986637
99742.385003515621065
99739.768967228024849
99739.060457693965873
99739.990584363229573
99742.153649614003371
99745.254208189813653
99749.247057693835814
99754.112652938682004
99759.604571205229149
99764.954306477549835
99768.906874950727797
99770.236440118271275
99768.186655266486923
99762.838057909233612
99755.161891342984745
99746.497184702151571
99738.117532970354659
99730.89633170356683
99725.386383495148038
99722.108157815469895
99721.703310877128388
99725.19224410795141
99734.161087358661462
99750.086720665218309
99773.434251050508465
99802.942930486009573
99835.508363037268282
99866.80913931078976
99892.426103726131259
99909.139502877922496
99916.094510638795327
99914.94983093017072
99908.907156346162083
99901.427296246474725
99894.681364221847616
99888.802120746098808
99882.147072600913816
99872.372757432705839
99857.79975413811917
99838.552194054354914
99816.83295714216365
99796.120328603297821
99779.966891744465102
99770.748148306214716
99769.037852637848118
99773.835604022737243
99783.366400567931123
99796.129276321677025
99811.51203045163129
99829.652806363883428
99850.804821158919367
99874.433426269271877
99898.61145487720205
99920.031624802446458
99934.826332209529937
99939.849931264834595
99933.83709362593072
99917.932017829967663
99895.487367643698235
99870.995604374023969
99848.726241619850043
99831.591667931133998
99820.631844313975307
99815.148637337886612
99813.497556776434067
99813.972338825158658
99815.406170700953226
99817.338511129215476
99819.806172126991441
99822.90498643887986
99826.310722830909071
99829.249825187798706
99830.806543303711805
99830.306374326304649
99827.681462904816726
99823.393626505261636
99818.060547292014235
99812.368554277170915
99806.548980743493303
99800.397495781711768
99793.598670884268358
99785.690614634731901
99776.386067290834035
99765.657255264857667
99753.745750739122741
99740.964172770778532
99727.773923563931021
99714.727904181258054
99702.501310276813456
99691.912306588186766
99684.077986287520616
99680.078372883916018
99680.668714880754123
99686.092071090941317
99695.880167973096832
99708.824125713246758
99723.106665331535623
99736.883809530467261
99748.652600416113273
99757.785650551217259
99764.52850421317271
99770.0509429366939
99775.931052356230794
99783.755121348396642
99794.41211126903363
99807.671270206803456
99822.059834470273927
99835.186300525616389
99844.392301791973296
99847.450972947772243
99843.1637904845702
99831.755473449185956
99814.860622735519428
99795.180260058084968
99775.800938778033014
99759.522550037305336
99748.363726170005975
99743.370273312801146
99744.633191787812393
99751.415929176917416
99762.425562697040732
99776.137453714400181
99791.048466230728081
99805.955061427594046
99819.986139512067894
99832.530060943332501
99843.087512237179908
99851.212076936310041
99856.523383951032883
99858.66013583347376
99857.454833988769678
99852.970501076852088
99845.519491151891998
99835.704597254181863
99824.284337866134592
99812.19324018820771
99800.2733620271174
99789.028191334553412
99778.765136340400204
99769.532294753327733
99761.253309457359137
99753.766187340021133
99746.88337863155175
99740.275727818429004
99733.593848392993095
99726.392479460031609
99718.037014703499153
99707.959483002588968
99695.861807013905491
99681.9756056934566
99667.17133015471336
99652.738627408791217
99640.268490579415811
99631.388149313119357
99627.312927299382864
99628.502868816896807
99618.652454630981083
99744.668893941343413
99619.345569919678383
99494.597164078732021
99356.406106392678339
99302.154969462266308
99431.894587916991441
99469.94926083291648
99438.730228971733595
99521.976606861848268
99630.721508150338195
99637.924579217811697
99630.328895509417634
99675.045308188549825
99694.938952255732147
99633.441316624812316
99587.375997642258881
99616.861592415720224
99637.303957346448442
99638.472256097680656
99687.069320666560088
99736.665626195899677
99681.946359760520863
99581.490517828671727
99555.221285410851124
99573.049551043106476
99544.673618539614836
99483.367533792188624
99455.788575550046517
99477.346100805414608
99532.375344086147379
99605.449096365016885
99662.823345311131561
99679.970703675164259
99670.772676114545902
99660.330726248226711
99650.754308390853112
99637.155444260424701
99616.205801441101357
99579.652907367926673
99531.995694867247948
99495.591520557238255
99502.052467104585958
99555.894247100339271
99618.113313336958527
99644.498110998625634
99627.848581671787542
99594.56847192942223
99570.074329520590254
99556.577542858925881
99544.727083236124599
99531.204094223721768
99519.728138433507411
99511.674094425485237
99509.761851045288495
99517.12370680073218
99530.686396729564876
99534.026295904957806
99512.517354502895614
99472.705000365458545
99438.396820929337991
99433.846248037429177
99467.7194646083517
99524.678367739499663
99567.967738390172599
99567.409945339983096
99543.135241702009807
99533.577070342711522
99552.458459066372598
99578.52043322751706
99582.793049476080341
99560.497705461646547
99532.28961003794393
99518.969394535699394
99519.563306336829555
99517.698488483161782
99500.664824063889682
99472.006296219871729
99445.579574972129194
99428.408624778821832
99420.286764565840713
99414.76498009081115
99405.879357666621218
99392.558014387643198
99379.206760689281509
99367.16274732684542
99360.604000576277031
99361.794811375817517
99365.321073413957492
99362.326903710738407
99345.980816880459315
99317.809271099060425
99285.057388905494008
99251.268138947023544
99216.913151559434482
99183.844734925558441
99159.835728144622408
99156.018378388369456
99172.43384203351161
99193.33577725039504
99202.700488015063456
99198.941825752874138
99192.644347271358129
99194.341499889022089
99203.916349432009156
99210.018734148718067
99203.536088317050599
99187.632305176535738
99178.244745718810009
99189.203336989725358
99219.17731894638564
99251.224517361508333
99268.729578733327799
99268.04748010536423
99257.70038346198271
99249.058071543433471
99248.48555639355618
99253.856575142897782
99258.381093783667893
99254.227613823270076
99238.317583456970169
99216.434951020521112
99199.315432011368102
99195.826078114536358
99206.519823966547847
99222.126265563943889
99229.845751899876632
99223.476738535362529
99207.383305570125231
99192.963797769582015
99189.383168624161044
99196.915833215243765
99209.752010197058553
99222.940785586615675
99236.334134479635395
99250.51681950261991
99263.115788792361855
99270.569037247420056
99270.161331119728857
99263.766649526616675
99254.207022776696249
99243.979846277274191
99235.681407824580674
99232.666138481581584
99239.51908608879603
99258.456903302867431
99286.731165094126482
99317.362198678471032
99343.284126288068364
99364.059724476144766
99385.349388309768983
99412.536622837928007
99444.076181189593626
99471.603915547704673
99486.370601915128645
99487.621396718357573
99483.27739404332533
99482.349048182702973
99488.373824751150096
99496.132178501793533
99498.01605934734107
99490.495313395964331
99475.540295067854458
99458.42907066521002
99444.445167224213947
99437.694453560718102
99440.761543599684956
99454.500685062012053
99476.145546307176119
99499.117994241314591
99515.628693178572576
99520.279633079830091
99513.015656132323784
99499.006644632143434
99485.379852813362959
99476.362100747253862
99471.145414586557308
99465.805817187720095
99457.024965295480797
99444.61116300917638
99431.562409080434009
99422.176304321925272
99419.370061549911043
99423.193195458050468
99431.062083640077617
99439.132974182517501
99443.662524366431171
99441.709669804986333
99431.952377362977131
99415.6390008720482
99425.840808675086009
99438.383803787903162
99450.872225429106038
99461.596463100780966
99470.318468554120045
99478.177216532712919
99485.899862452686648
99491.945943232844002
99492.695802418995299
99484.736524704334443
99467.63497372873826
99445.315100746418466
99424.348554221913218
99410.706579971665633
99406.580742158388603
99409.328870433484553
99413.360941795734107
99413.748581999869202
99408.800729952854454
99400.200290739478078
99391.596272498427425
99386.300854891960626
99385.936708096545772
99390.682301540015033
99400.276206099690171
99414.629581385917845
99433.175735217126203
99454.12452438523178
99474.069349876255728
99488.655494272243232
99494.453554971463745
99490.497990613788716
99478.990172517180326
99464.762271601110115
99453.607761642007972
99450.136310750516714
99455.932423328646109
99469.242649553227238
99486.024582105892478
99501.630729816854
99511.944612309249351
99515.213193659219542
99512.498431168263778
99506.863120581168914
99503.198343296491657
99505.939329197004554
99517.317220099357655
99536.504360620470834
99559.349864680698374
99579.850033823415288
99592.729547141338116
99595.762960483290954
99590.797276984681957
99582.995149946509628
99578.61187380256888
99582.445490289086592
99596.246775217441609
99618.489436711446615
99645.387483608603361
99672.628018397605047
99697.002298093721038
99717.08737100129656
99733.068478881425108
99745.917742191013531
99756.369009989575716
99764.414125514274929
99769.432342005791725
99770.677381751607754
99768.006998923141509
99762.532313303658157
99756.782663102523657
99754.184540202084463
99757.963417126433342
99769.773542181414086
99788.540227810823126
99810.351521758420859
99829.615004235893139
99840.948389690471231
99840.934480863405042
99829.065132833551615
99807.614322436595103
99780.644012645876501
99752.624263941601384
99727.24152827913349
99706.804506957618287
99692.28797844692599
99683.747059938978055
99680.822425140169798
99683.100603829268948
99690.172545376539347
99701.368240970754414
99715.342065483506303
99729.85389326918812
99742.365218702805578
99750.568966480830568
99753.310417007043725
99750.993447753455257
99745.03893852532201
99737.40056262408325
99729.842075757012935
99723.570985828933772
99719.196898908019648
99716.852747297016322
99716.831531307034311
99719.279879032692406
99724.275760479693417
99731.347350348398322
99739.467708642288926
99746.914829572167946
99751.890591081581078
99753.068282338732388
99750.226249956904212
99744.206667296253727
99736.549542497523362
99728.963182399384095
99722.762216067596455
99718.937118859525071
99718.020618911177735
99720.528970996354474
99727.233418406234705
99739.079351269931067
99756.669619593172683
99779.744937374678557
99806.817323289156775
99835.10370811544999
99861.028355058093439
99881.26227135604131
99893.707442826445913
99898.242157140528434
99896.72302666894393
99892.046858041459927
99886.909209510748042
99882.7018742068758
99878.97963336808607
99873.891771538488683
99865.175501333040302
99851.445058627345134
99833.139759135505301
99812.570128141844179
99793.208606348052854
99778.315009964077035
99769.925984448986128
99768.310566376778297
99772.366702753395657
99780.521734156543971
99791.645817060882109
99805.52664321679913
99822.634595404771972
99843.29527786008839
99866.820812380174175
99890.932551127727493
99912.13523137276934
99926.558335799607448
99931.265798084394191
99925.324437090675929
99910.252434403839288
99889.625118181415019
99868.006540136120748
99849.487149979191599
99836.604569964198163
99829.852060556804645
99827.956233772114501
99828.694365855713841
99829.93712619956932
99830.349113271440729
99829.633894679529476
99828.3134900075529
99827.136454736872111
99826.563793657333008
99826.508086305679171
99826.339265758535475
99825.377423532860121
99823.188724251929671
99819.561802949639969
99814.698572535271524
99808.741734736948274
99802.038821884401841
99794.709237776405644
99786.793576577067142
99778.301860398758436
99769.317969828378409
99759.947197425339255
99750.220416352211032
99740.175059931003489
99729.744949486645055
99718.932788056263234
99708.031425930719706
99697.719438351079589
99688.98626086996228
99683.030299346079119
99680.866843167488696
99682.901237422207487
99688.866916217331891
99697.731952509318944
99707.991642289009178
99718.005625060221064
99726.622252851404482
99733.431019004478003
99738.996995361347217
99744.561327782372246
99751.708477683656383
99761.778546577421366
99775.34050557462615
99791.792268989258446
99809.280871747294441
99825.096923642719048
99836.356498238877975
99840.72559548728168
99837.099598694185261
99825.826627638190985
99808.736624222161481
99788.579399691996514
99768.537143132009078
99751.480159590195399
99739.513981944357511
99733.696730999843567
99734.192635636762134
99740.425116468555643
99751.258343382607563
99765.334900143803679
99781.278722992385156
99797.859996664818027
99814.063544331409503
99829.08641749205708
99842.142528039490571
99852.553626097214874
99859.732674471044447
99863.41721117029374
99863.566438102454413
99860.5369832864817
99854.883971600633231
99847.282317478908226
99838.465777787903789
99829.054417415842181
99819.570638390621752
99810.356901779014152
99801.547773893835256
99793.330920610824251
99785.813012521146447
99779.014794214905123
99772.953973540192237
99767.579659361828817
99762.645525249667116
99757.713908034318592
99752.095519588314346
99745.01302068035875
99735.905508056821418
99724.497032050654525
99711.169944389752345
99696.962663165846607
99683.273629952629562
99671.834209735388868
99664.270572866182192
99661.573448019320494
99663.953284593124408
99511.954251483082771
99343.755000907607609
99536.540077009805827
99592.588831131972256
99422.669690797250951
99357.614319927248289
99407.740075573528884
99414.006259201225475
99434.547574177675415