/*--------------------------------*- C++ -*----------------------------------*\
  =========                 |
  \\      /  F ield         | OpenFOAM: The Open Source CFD Toolbox
   \\    /   O peration     | Website:  https://openfoam.org
    \\  /    A nd           | Version:  12
     \\/     M anipulation  |
\*---------------------------------------------------------------------------*/
FoamFile
{
    format      ascii;
    class       volScalarField;
    location    "0.0069";
    object      p_0;
}
// * * * * * * * * * * * * * * * * * * * * * * * * * * * * * * * * * * * * * //

dimensions      [1 -1 -2 0 0 0 0];

internalField   nonuniform List<scalar> 
75962
(
99207.582060955974157
99116.264892862105626
99356.052752100105863
99382.298340651890612
99501.548635846833349
99576.826145346276462
99569.007739748398308
99540.004788340796949
99487.75789504032582
99448.409440798597643
99407.554824888589792
99382.907196423766436
99491.004243345028954
99640.148485939935199
99652.906427436013473
99539.656152781972196
99451.784340322861681
99453.646166893900954
99508.742801112661255
99585.267654405848589
99666.651093864551513
99682.335698648937978
99611.926627283901325
99538.334300478905789
99526.906818910996662
99528.547429617770831
99502.483132880326593
99489.701618984356173
99497.829325351136504
99512.00576648277638
99538.626878341354313
99581.212913589552045
99603.755653851854731
99577.727641092817066
99534.976930876873666
99520.168658890412189
99531.581861763261259
99540.601127976726275
99534.280068995227339
99520.071578574410523
99509.811132130183978
99513.454488723669783
99530.257901802659035
99555.045074221750838
99574.994538910395931
99570.669361397871398
99536.237871924953652
99493.316321209160378
99478.064292480208678
99504.538404501377954
99544.896370543705416
99565.500014884775737
99562.198446449590847
99546.986562687830883
99528.673775560353533
99515.302360059708008
99504.550975811100216
99478.941185507574119
99427.879503653035499
99365.49005740013672
99328.810167905248818
99341.807432040237472
99391.452301733967033
99441.091440614269231
99458.410000504401978
99449.457938950989046
99438.260841124749277
99449.249100276094396
99479.137624998693354
99502.021938348450931
99501.778719914669637
99489.576818372253911
99488.023469545631087
99502.546918588195695
99513.354054895113222
99493.541908047001925
99439.961764614461572
99377.12928101408761
99334.325723627014668
99323.558013104950078
99338.698119709675666
99365.946158114544232
99390.376854047179222
99398.762321579095442
99384.836247859566356
99359.188938581690309
99342.041281025973149
99341.245629305092734
99346.244640374978189
99341.22727483761264
99320.407288632879499
99290.3136425276316
99257.026457682877663
99220.21020919419243
99174.346554183823173
99123.092070449420135
99082.481240025706938
99069.821849232845125
99087.517084417282604
99119.298720065999078
99144.257661169322091
99156.068989239356597
99166.454568094719434
99187.815696574558388
99214.648038385159452
99227.445879007558688
99212.474171272464446
99178.460804283255129
99150.253375157990376
99147.504102402774151
99169.960195201419992
99200.977888984096353
99222.644671196074341
99228.59893692190235
99224.106377057978534
99218.597856292777578
99217.865717547319946
99219.657172566556255
99215.073204844724387
99195.716699588330812
99162.533779339530156
99128.734946384836803
99112.751183298532851
99124.335104502461036
99155.975534992103348
99187.896769030528958
99203.25064312176255
99198.670105931829312
99183.777391614828957
99170.805208480116562
99165.150312996993307
99165.533421916770749
99167.48787435014674
99170.331093346409034
99175.978890350583242
99184.572298336002859
99193.0583884211228
99198.26697168633109
99201.886576901830267
99208.517368694185279
99219.387059993372532
99230.265777590262587
99234.799626670239377
99231.849946451533469
99226.736279596152599
99227.655943206773372
99240.505993137310725
99266.01420647437044
99301.413048674556194
99342.095568936754717
99382.623446769779548
99418.202637742782827
99443.622592863393947
99454.502987139640027
99449.390886153283645
99431.648115916919778
99409.451362417661585
99392.618517887749476
99385.485726902406896
99387.209836580223055
99393.303405692116939
99398.986259776633233
99402.237595201688237
99403.018998446859769
99402.077440564346034
99400.498462765783188
99401.050109230200178
99407.433387765180669
99422.264974756486481
99444.215578289629775
99467.746869596914621
99485.606963560931035
99493.10912435661885
99490.623968701198464
99481.412314701577998
99468.683030311090988
99454.024243442734587
99437.935972198523814
99421.788360009624739
99409.21081170362595
99404.624465471672011
99410.485968769848114
99425.601466141481069
99445.703848799719708
99465.52337479806738
99480.506357886304613
99488.078517377667595
99487.047880883270409
99492.349637058374356
99513.545964513774379
99533.897998912449111
99549.697621516548679
99560.196977942294325
99566.880893283101614
99571.418704121941119
99573.641065786781837
99570.944720674233395
99559.972776893890114
99538.931857271527406
99509.754809568170458
99478.280047030362766
99451.636073943489464
99434.848213756937184
99428.454212238983018
99428.352073570917128
99428.538874262725585
99424.368937137915054
99414.942667176524992
99402.773856439845986
99392.214910692127887
99387.353101025873912
99390.803041606210172
99403.197161685195169
99423.046029628269025
99447.093435394097469
99471.053021893822006
99490.492157483153278
99502.132806554509443
99504.955777782321093
99500.515831044787774
99492.357286811937229
99484.652812168133096
99480.792726346844574
99482.383133894196362
99488.993463801642065
99498.465233472466934
99508.06608604543726
99515.161541824854794
99518.565899247638299
99517.930683228056296
99514.524723035123316
99510.968813958214014
99510.59761628130218
99516.87265252211364
99531.791785747627728
99554.665660394108272
99581.957542188189109
99608.235924778768094
99628.175498956537922
99638.708358723364654
99640.397815978547442
99637.181735878941254
99634.515892351366347
99637.045223137814901
99647.041327184488182
99664.063594674647902
99685.757016626361292
99709.420619531418197
99733.040240146554424
99755.325810799069586
99775.202637426627916
99791.389814014328294
99802.523152599766036
99807.783108846357209
99807.573287636550958
99803.627366521061049
99798.52972184655664
99794.882177454303019
99794.46673117413593
99797.904647750605363
99804.900902615059749
99814.581778034829767
99825.639927824653569
99836.295915636335849
99844.321147876340547
99847.392041940809577
99843.681969715849846
99832.541743991911062
99814.88288516071043
99792.979503744485555
99770.167365806468297
99749.705619425541954
99733.979988453254919
99723.990728636927088
99719.374829498323379
99719.051662789934198
99721.865058420138666
99726.790115986485034
99733.015978066352545
99739.622144132197718
99745.523233699903358
99749.641665006507537
99751.361037185488385
99750.766136528065545
99748.69352674818947
99746.630424291914096
99746.138693012617296
99748.179451979012811
99752.686517689347966
99758.867060772638069
99765.757246710069012
99772.477158792942646
99778.438070110409171
99783.376784737789421
99787.016465675405925
99788.95354146369209
99788.745914694154635
99786.099824097662349
99780.964021110659814
99773.790609197196318
99765.518521093195886
99757.072276510531083
99749.098883736340213
99741.926748467580182
99735.580135911193793
99730.242024434395717
99726.644733049324714
99726.248387439205544
99731.111354235210456
99743.496472821731004
99764.735435201611836
99794.244246025089524
99829.040814449312165
99864.318449845115538
99894.621366828068858
99915.65657120681135
99925.623191238075378
99925.646810709746205
99919.125367294822354
99909.953694147377973
99901.094045403486234
99893.386513269186253
99885.706822831358295
99875.868756519121234
99862.046892317041056
99844.003291653483757
99823.423884540607105
99803.421377100487007
99787.372093570578727
99777.75338043353986
99775.439931386194075
99779.767999126197537
99789.243593888590112
99802.317587294164696
99818.056684549694182
99836.189582012113533
99856.708380191368633
99879.036537048275932
99901.46264673222322
99921.082714360483806
99934.4739439679106
99938.775177191884723
99932.683180834545055
99917.017223273214768
99894.593737649352988
99869.398157192379585
99845.439477497755433
99825.682140066564898
99811.537397183521534
99802.925237412840943
99798.890084955375642
99798.274745975912083
99800.16368429416616
99804.034994265268324
99809.520580555123161
99816.023746334263706
99822.466498843758018
99827.554343997195247
99830.196281363343587
99829.849577719171066
99826.810775104328059
99822.056431933509884
99816.727400476826006
99811.710389013693202
99807.237430168126593
99802.833007054185146
99797.586985060828738
99790.528992245861446
99781.074625710607506
99769.194025770993903
99755.396867542774999
99740.66093396366341
99726.060736398707377
99712.581817143334774
99701.275081165105803
99693.089690287786652
99688.80371196330816
99688.984395602630684
99693.759483677902608
99702.87595290671743
99715.577613006840693
99730.58014633107814
99746.320025710956543
99761.162389461824205
99773.845223303113016
99783.685623352022958
99790.908112275370513
99796.400035876751645
99801.587884320702869
99807.858848053350812
99816.082649704825599
99826.218040731168003
99837.188316314583062
99847.153616420153412
99853.970077923426288
99855.687886635525501
99851.198818164732074
99840.63045852984942
99825.392153960056021
99807.824581678956747
99790.631049910458387
99776.290688771128771
99766.606973776899395
99762.536440558658796
99764.135185913459281
99770.633047461335082
99780.707183303442434
99792.787558380689006
99805.449199135022354
99817.601542109012371
99828.586746656234027
99838.000876363279531
99845.592723602661863
99851.114971259856247
99854.215055803360883
99854.456691503510228
99851.479093899717554
99845.10766093651182
99835.560048652158002
99823.479610665861401
99809.879536491833278
99795.92471651325468
99782.534200758338557
99770.308618100476451
99759.495047229996999
99749.995120128587587
99741.516925962059759
99733.6685057477589
99726.015995895810192
99718.146071441908134
99709.656872755149379
99700.037937441840768
99688.842593573324848
99675.823958540044259
99661.136893951697857
99645.470079385224381
99629.941624745173613
99616.039526947861305
99605.401250616923789
99599.433716476225527
99598.968494369779364
99604.018002857192187
99551.681894826309872
99570.181146583519876
99595.245482549638837
99526.088814960676245
99443.645808514032979
99298.878231574039091
99240.371901956270449
99345.484625339828199
99425.820876548081287
99480.899779541578027
99508.811030367869535
99510.718380512931617
99576.422447113334783
99688.762513701352873
99699.664953654253623
99588.939943810401019
99503.536129357205937
99516.913448267412605
99557.974617470099474
99616.221529705682769
99692.154022769231233
99706.96289759746287
99618.539050129693351
99522.686350521660643
99508.397769559145672
99525.879011022247141
99505.179484845066327
99474.145705318718683
99466.063634003221523
99480.145367822129629
99522.967037295980845
99590.144816158048343
99634.593750099680619
99625.450686609125114
99595.943066424166318
99588.422270161594497
99594.992285442145658
99591.460868394366116
99574.376557389972731
99546.221453849619138
99515.377816452295519
99498.187662227690453
99509.976683144050185
99555.711146913890843
99603.935530306174769
99615.851893996368744
99586.222527453559451
99546.624371749960119
99531.798253326225677
99545.768645796197234
99564.215029747734661
99566.301073815367999
99552.362915357123711
99531.840237301701563
99516.148853062200942
99513.280672756169224
99515.746262447442859
99502.902330385579262
99461.245003067655489
99408.642890383751364
99377.895967577103875
99388.031784220947884
99433.598783486158936
99488.21766857986222
99518.988998080254532
99514.24416904807731
99495.865359724746668
99499.605398367377347
99528.31529019822483
99553.222862989583518
99551.172709804945043
99529.639470176072791
99513.102772684011143
99513.967438088642666
99519.463243103731656
99505.057143080775859
99463.340445164576522
99411.911274401034461
99376.192600072885398
99368.077514678239822
99378.787905820674496
99393.285153717559297
99400.646516500346479
99395.840864941041218
99380.057676771786646
99362.318874723641784
99353.677569558480172
99357.178328934765887
99363.147822866099887
99356.978773640978034
99332.685661530456855
99297.768599982824526
99261.203211023123004
99224.491249215745484
99183.563383290194906
99140.32841686149186
99107.743143741172389
99101.778906215316965
99123.924261167485383
99154.711099931606441
99173.287841191180632
99176.082397942547686
99176.792040143845952
99189.607500497862929
99209.751215311785927
99219.235824924471672
99206.640642740559997
99179.724285281903576
99160.917197521834169
99166.896884067653446
99194.971630949512473
99226.425007232726784
99244.265970229869708
99245.618057923056767
99238.775505142781185
99233.463564413192216
99234.227897928838502
99237.863589250438963
99236.487172462235321
99222.341168057901086
99194.346843325096415
99163.200189955270616
99145.127877725797589
99150.405383801800781
99175.422320503130322
99203.295934641049826
99216.551030012371484
99209.47905347115011
99190.808294326649047
99174.850272213632707
99170.302266725353547
99176.551111251421389
99186.414615664732992
99195.136990666098427
99203.771057958336314
99213.240099727918277
99221.686959453465533
99226.769985745282611
99229.23201083605818
99232.17558350568288
99236.298624304865371
99238.993344408183475
99237.158809667977039
99232.370328694567434
99230.913124433500343
99239.732940032772603
99261.020289723834139
99290.723877973869094
99322.843978999342653
99354.569792799738934
99385.832829976745415
99417.7816285580775
99447.456246970323264
99467.980473101022653
99473.24793333998241
99464.002781159637379
99449.384329197870102
99439.372194408919313
99438.341777921901667
99443.211762023696792
99447.317109237628756
99446.358474032313097
99439.922904094361002
99430.612808306264924
99421.698618318128865
99416.381882034853334
99417.748592364179785
99428.273462926896173
99447.463577466260176
99470.537697947729612
99490.31382196416962
99500.729094341557357
99500.422185313014779
99492.658979945248575
99482.476556798297679
99472.864818202418974
99463.266246741928626
99451.823138929816196
99438.28706640265591
99425.244515302270884
99417.016133475102833
99416.561197337956401
99423.93072181341995
99436.303084025683347
99449.755909678337048
99460.536950664478354
99465.963351494443486
99464.14080837162328
99453.903486454641097
99442.614654654069454
99456.046544779994292
99473.752080944250338
99491.750947142514633
99506.843148044092231
99517.969626753940247
99525.991387957968982
99532.043975182343274
99535.529055653358228
99533.702995504601859
99523.225482458263286
99503.087403049721615
99476.317011573220952
99449.221867994245258
99428.433860740289674
99417.647093497551396
99415.859811747970525
99418.194483942672377
99418.961119293860975
99414.845531388054951
99406.106682213256136
99395.724920803913847
99387.556683785864152
99384.801825194590492
99389.091419933261932
99400.701380571859772
99418.790880740067223
99441.279121542029316
99464.77918074002082
99485.096491663411143
99498.209358444670215
99501.796143755273079
99496.266140738676768
99484.827547506181872
99472.457401121588191
99464.219236395321786
99463.33142151508946
99470.196034521621186
99482.560752615827369
99496.559805897064507
99508.110595667298185
99514.713876562935184
99515.340547402040102
99511.271950086404104
99505.874506773572648
99503.509673768625362
99508.302880703631672
99522.380223467655014
99544.76008004504547
99571.314517498001806
99595.924579866521526
99612.837190848251339
99619.297687816855614
99616.783682913475786
99610.290344985478441
99606.084952522476669
99609.177443320091697
99621.550042551782099
99641.954377156973351
99667.179784660620498
99693.56706424235017
99718.180972610032768
99739.415277666354086
99756.783386598966899
99770.28354477584071
99779.968137380143162
99785.83310701631126
99787.975418798727333
99786.9469896859664
99783.87725923731341
99780.348489511408843
99778.210755640844582
99779.324452689426835
99785.127908037189627
99796.080511633161223
99811.192769025219604
99827.774351418644073
99841.869612208683975
99849.403150366764748
99847.534973805930349
99835.554639928785036
99815.075944710799376
99789.466356436823844
99762.772334774461342
99738.636412454128731
99719.577058306269464
99706.694768921894138
99699.951113958406495
99698.667285267423722
99701.903634000831516
99708.786916085402481
99718.322440734787961
99729.157247799070319
99739.525957611942431
99747.618451078611542
99752.051850002113497
99752.579858573182719
99750.023860452551162
99745.936865289419075
99741.978949940894381
99739.441953908506548
99738.840394126164028
99739.880205477544223
99742.140311971321353
99745.328988624343765
99749.393881081487052
99754.312149051256711
99759.812486097798683
99765.109456474907347
99768.941900724777952
99770.108795693944558
99767.88376295605849
99762.393372115810052
99754.63673683826346
99745.95794576080516
99737.619651243003318
99730.46685291112226
99725.038570930963033
99721.853856321205967
99721.563272172192228
99725.217117989130202
99734.418715449777665
99750.619731930244598
99774.221905046724714
99803.892657595279161
99836.459920363879064
99867.566537204009364
99892.822592505151988
99909.09020762698492
99915.625050748989452
99914.188164748382405
99908.020473758486332
99900.548501589466468
99893.861924409531639
99888.003013510096935
99881.271939632599242
99871.327675074193394
99856.556989158634678
99837.176007873044
99815.468876764294691
99794.94455817634298
99779.12422397537739
99770.304485229746206
99768.970587070536567
99774.059929022798315
99783.79031027117162
99796.701039384264732
99812.232929559584591
99830.553155086323386
99851.89632312869071
99875.666837848330033
99899.853271160449367
99921.08794625524024
99935.49702322682424
99940.000847075934871
99933.447857387640397
99917.110956826087204
99894.437191514807637
99869.948526960986783
99847.872669713950017
99831.036355009113322
99820.385076022110297
99815.152096917430754
99813.663203704010812
99814.218018188155838
99815.678912163566565
99817.614151072819368
99820.077755004473147
99823.164554349510581
99826.542773295048391
99829.432576742052333
99830.923002698851633
99830.352820817090105
99827.664973532839213
99823.328584618808236
99817.954036156414077
99812.206976059984299
99806.307355225013453
99800.042165235397988
99793.098548303139978
99785.02923012158135
99775.571746394649381
99764.715529488108587
99752.715601895251893
99739.889325495518278
99726.696046948636649
99713.694371728633996
99701.558510878952802
99691.102752890234115
99683.445814198377775
99679.659786636606441
99680.482049808779266
99686.129448220279301
99696.103130486779264
99709.151054549540277
99723.443057580167078
99737.138827407237841
99748.772471650547232
99757.763274455661303
99764.407547188922763
99769.908153007243527
99775.85399875031726
99783.81217110187572
99794.625895758537808
99808.001875568137621
99822.411413053865544
99835.428969780303305
99844.400762897406821
99847.141429753392003
99842.517852624630905
99830.829092385974946
99813.771151621782337
99794.078917884122347
99774.837003641470801
99758.819562536024023
99748.002153152701794
99743.377248673583381
99744.985142485165852
99752.049134356944705
99763.262261766270967
99777.10020033067849
99792.071839266922325
99806.991595540835988
99821.006785389006836
99833.514698069062433
99844.017167940051877
99852.065428012618213
99857.280048039683606
99859.302706768750795
99857.97993476006377
99853.384820575462072
99845.846689051642898
99835.973995452441159
99824.52474897162756
99812.430455163106672
99800.527112332740217
99789.313838957546977
99779.096189955977025
99769.912065959812026
99761.684483404853381
99754.249270101237926
99747.406784953054739
99740.812778650491964
99734.112501736322884
99726.855981334781973
99718.410543702979339
99708.213730476883939
99695.977762488284498
99681.965085848758463
99667.082298970926786
99652.649120820162352
99640.275282138041803
99631.58426858553139
99627.763110411906382
99629.229591834242456
99643.172562926120008
99744.52967688778881
99615.085542363216518
99490.377812644423102
99352.119767932628747
99304.182846469033393
99435.672749641977134
99470.179637165914755
99439.888336219781195
99525.975622812009533
99632.950441443535965
99637.793686557808542
99630.790082517778501
99675.775640694104368
99693.34770446967741
99630.63334028670215
99586.526622146178852
99617.183846710526268
99636.781691846379545
99638.338582308046171
99688.099925307251397
99735.845508760176017
99678.279129592570825
99578.527186116058147
99554.607184563792543
99572.321691904231557
99542.554287325736368
99481.404844388860511
99455.364318460487993
99478.429423845591373
99534.407452270766953
99607.545460796769476
99663.893228094369988
99679.887642738278373
99670.25257958486327
99659.753230546804843
99650.052580046947696
99636.289232309776708
99614.98074411523703
99578.084605407508207
99530.50363750148972
99495.051879563296097
99503.220096473538433
99558.176119904601364
99619.956450061741634
99644.932087115754257
99627.229108929008362
99593.788611523734289
99569.55807321544853
99556.148459483039915
99544.154171220812714
99530.562497671751771
99519.203478843919584
99511.351764658596949
99509.74059423278959
99517.409748993333778
99530.922469801749685
99533.613957066074363
99511.311431555499439
99471.24594735680148
99437.466156988113653
99434.017067319902708
99468.880318496201653
99525.993295879539801
99568.189233870696626
99566.36504482170858
99541.964650015273946
99533.175424583605491
99552.61465668179153
99578.258380861530895
99581.539735394107993
99558.644601684471127
99530.604292131072725
99517.863264073544997
99518.696514962153742
99516.582759206779883
99499.142580860861926
99470.405242201624787
99444.230538088726462
99427.409493448387366
99419.491550497157732
99413.998061885155039
99405.058394988795044
99391.779438990794006
99378.570514877341338
99366.705012014193926
99360.427566716665751
99361.80533609467966
99365.26243800795055
99361.962464043332147
99345.199993629357778
99316.758813560940325
99283.992191606434062
99250.255145347240614
99215.96266667341115
99183.104164041607874
99159.651910952990875
99156.579791085794568
99173.394646286731586
99194.070769941346953
99202.880870247943676
99198.787112601843546
99192.562121087335981
99194.532238536354271
99204.155036246869713
99209.915012446203036
99202.982225883053616
99187.006646536538028
99178.088732263451675
99189.725646789302118
99220.042062322580023
99251.822760791706969
99268.691003778920276
99267.530579609767301
99257.059049675226561
99248.593079970378312
99248.242454574981821
99253.650501416675979
99257.944096750215976
99253.386534254052094
99237.117990389830084
99215.203622476110468
99198.439912353118416
99195.47030365516548
99206.553554020050797
99222.136869183217641
99229.443079508433584
99222.600680392191862
99206.364956230230746
99192.210760631904122
99189.051947321728221
99196.873695931382827
99209.775424962164834
99222.927297672023997
99236.299050126894144
99250.441480878245784
99262.915185015779571
99270.128869260486681
99269.476020078873262
99262.886381988500943
99253.207043965070625
99242.954398071407923
99234.722654759127181
99231.951556974192499
99239.205166745960014
99258.544071495591197
99287.024368615151616
99317.569207337015541
99343.255203076347243
99363.922194279744872
99385.350503760942956
99412.774601801356766
99444.377368166417
99471.651584678533254
99485.968020304208039
99486.880891128588701
99482.532039477082435
99481.834024179042899
99488.022616927046329
99495.677655820705695
99497.233987704690662
99489.369920998316957
99474.223460891487775
99457.138519378480851
99443.374679135420593
99436.991666511632502
99440.508492632725392
99454.671312214471982
99476.553766134631587
99499.487297212835983
99515.697671607500524
99519.94355563785939
99512.374556599243078
99498.299100160089438
99484.816563542626682
99475.992567477849661
99470.859672883554595
99465.456444089082652
99456.54866010886326
99444.072598163824296
99431.110487054422265
99421.958958332412294
99419.442499438140658
99423.50820327171823
99431.498463783063926
99439.545091187814251
99443.914144504262367
99441.70749847368279
99431.660814784132526
99415.494285303881043
99425.891581406569458
99438.540082219900796
99451.036761247974937
99461.716983236707165
99470.407656864394085
99478.26577622370678
99485.970625071699033
99491.891202546074055
99492.375211427191971
99484.078703332153964
99466.721945084049366
99444.365786212205421
99423.611846228741342
99410.326084704312962
99406.519163715536706
99409.391598002868704
99413.326693737224559
99413.496608629910043
99408.355535625902121
99399.700399138673674
99391.203838100205758
99386.122302127827425
99386.002542035232182
99390.980202438076958
99400.779055255814455
99415.304977023930405
99433.960361937133712
99454.88749291691056
99474.627981466939673
99488.835684444595245
99494.172421150142327
99489.807137185081956
99478.074602731925552
99463.87777155378717
99452.988742714573164
99449.904862910683732
99456.061344807356363
99469.590809284942225
99486.385383040964371
99501.819792715643416
99511.851755927316844
99514.854678040021099
99511.982439062136109
99506.376219461541041
99502.948937388093327
99506.062979325593915
99517.832907667863765
99537.291137036911095
99560.170469747667084
99580.451374553580536
99592.948906218531192
99595.601047698190087
99590.421015329382499
99582.669320557193714
99578.587064178296714
99582.86393932478677
99597.101272880347096
99619.641253723806585
99646.629591517703375
99673.769022433101782
99697.925331531630945
99717.765902192870271
99733.545376086665783
99746.257753170764772
99756.612803122363403
99764.565810535132186
99769.469739511143416
99770.578667543173651
99767.785097073574434
99762.259225797010004
99756.586126603142475
99754.213418628132786
99758.33110764985031
99770.495975357989664
99789.503817479489953
99811.337940347875701
99830.371699933806667
99841.272891897038789
99840.735696892632404
99828.38170055532828
99806.588127780647483
99779.466087340260856
99751.476964772533393
99726.259343075507786
99706.062904660779168
99691.813810898049269
99683.538397124502808
99680.867044724494917
99683.384845210792264
99690.673665673428332
99702.037939835732686
99716.089992361914483
99730.554300666306517
99742.886178544824361
99750.807344233777258
99753.237970850168495
99750.650877402469632
99744.508981874256278
99736.7896235864755
99729.25409067273722
99723.070658376978827
99718.823881001706468
99716.626414994854713
99716.759383459881064
99719.357398992637172
99724.475830613926519
99731.621214313505334
99739.731235873172409
99747.07636627323518
99751.874987868359312
99752.845941281397245
99749.817878332061809
99743.67520452021563
99735.975024164508795
99728.418548928078962
99722.30123005520727
99718.585069266016944
99717.785906932200305
99720.424998330025119
99727.28445690870285
99739.313323966547614
99757.089250005388749
99780.310454719277914
99807.439601312420564
99835.654028308388661
99861.368464141633012
99881.284143767072237
99893.374848358114832
99897.605259208983625
99895.893079391826177
99891.153453151346184
99886.040641825340572
99881.87307386676548
99878.135457910699188
99872.939624339953298
99864.044104957138188
99850.127335711033083
99831.717533388349693
99811.189972165564541
99792.033167902583955
99777.463703365065157
99769.43989652536402
99768.148219525406603
99772.444551213935483
99780.762257049034815
99792.019957999931648
99806.060777274513384
99823.375849424293847
99844.261489380864077
99867.953002920650761
99892.088388956093695
99913.116378071237705
99927.171055695653195
99931.388636064584716
99924.953215293440735
99909.508033813544898
99888.717725696842535
99867.165346973517444
99848.888944344769698
99836.327723886730382
99829.872927065007389
99828.179873467306606
99829.003252829439589
99830.236408218028373
99830.588599235648871
99829.812377233742154
99828.457946135546081
99827.274997081753099
99826.71056792831223
99826.660610938663012
99826.480207092987257
99825.481068220266025
99823.237115887357504
99819.547997543981182
99814.609425853850553
99808.579462738649454
99801.798843358526938
99794.383331649747561
99786.368603124195943
99777.778255140015972
99768.704006374449818
99759.255099857691675
99749.465638944297098
99739.371158253052272
99728.912710067001171
99718.099665810572333
99707.236899228606489
99697.007644760742551
99688.401753818121506
99682.612724475853611
99680.640872524265433
99682.865607271101908
99688.988673673171434
99697.953961415551021
99708.230609867023304
99718.189465596020455
99726.706191978417337
99733.421511594860931
99738.945497137421626
99744.549091406704974
99751.816694993613055
99762.060819307211204
99775.798503087105928
99792.366254668188049
99809.857829780681641
99825.536979496275308
99836.52603659433953
99840.53804326626414
99836.53808808598842
99824.950969886049279
99807.669132977272966
99787.475744958865107
99767.554081262191175
99750.742114064807538
99739.099325652350672
99733.633552205385058
99734.468173953791847
99740.990534544951515
99752.049288806098048
99766.288315574114677
99782.337213693594094
99798.974174875897006
99815.190349982352927
99830.186870525576524
99843.17870981899614
99853.490762982575689
99860.543667235324392
99864.088471808179747
99864.100287226523506
99860.955164381375653
99855.216363884595921
99847.565256469941232
99838.728811245964607
99829.318214350292692
99819.851025855299667
99810.662217888369923
99801.887399045037455
99793.71157346534892
99786.242470526238321
99779.496119726056349
99773.492667534417706
99768.16633411309158
99763.248313791686087
99758.284199737958261
99752.578486565485946
99745.36871528053598
99736.107339999449323
99724.536894670120091
99711.077842605809565
99696.800356769133941
99683.130544900879613
99671.816538349856273
99664.469508478578064
99662.046818429109408
99664.715093774706475
99505.251722373344819
99342.657313022617018
99540.466606796137057
99588.974111245115637
99417.886201514920685
99357.061230412466102
99408.595400273159612
99413.47465026822465