/*--------------------------------*- C++ -*----------------------------------*\
  =========                 |
  \\      /  F ield         | OpenFOAM: The Open Source CFD Toolbox
   \\    /   O peration     | Website:  https://openfoam.org
    \\  /    A nd           | Version:  12
     \\/     M anipulation  |
\*---------------------------------------------------------------------------*/
FoamFile
{
    format      ascii;
    class       volScalarField;
    location    "0.0069";
    object      pMean;
}
// * * * * * * * * * * * * * * * * * * * * * * * * * * * * * * * * * * * * * //

dimensions      [1 -1 -2 0 0 0 0];

internalField   nonuniform List<scalar> 
75962
(
98833.219728449810646
98833.806182113534305
98833.552757792174816
98833.36950233290554
98833.277668788985466
98833.066250572999706
98832.794917777951923
98832.486832905371557
98832.153050087741576
98831.791522827392328
98831.386525924361194
98830.967284643425955
98830.516070699683041
98829.990829116999521
98829.414795456905267
98828.866249440397951
98828.371213953447295
98827.88994997102418
98827.386871675931616
98826.853168788831681
98826.281492881753366
98825.685115801272332
98825.105936714986456
98824.571046216282411
98824.061115509481169
98823.550909990153741
98823.050298359958106
98822.56805844225164
98822.092797044693725
98821.61727940653509
98821.138638326883665
98820.646806936652865
98820.138853602678864
98819.631756242364645
98819.142864946566988
98818.670027385218418
98818.199069786147447
98817.727750864170957
98817.261684161174344
98816.805580293803359
98816.35946165266796
98815.918770405827672
98815.475799828447634
98815.025682221123134
98814.565604684583377
98814.101464559193118
98813.647098548215581
98813.21351459196012
98812.798856024892302
98812.385247127967887
98811.95695555684506
98811.513990634455695
98811.067010766841122
98810.623686606500996
98810.187500159823685
98809.758916460326873
98809.335042855193024
98808.918288058775943
98808.518663794035092
98808.148701545258518
98807.808421175548574
98807.481648131637485
98807.147870756642078
98806.798310195226804
98806.442174032694311
98806.094600825337693
98805.762448966124794
98805.438419938713196
98805.109744807574316
98804.772448498028098
98804.43394762853859
98804.104253096462344
98803.785601442781626
98803.46900709682086
98803.147084129610448
98802.826442937599495
98802.521781683331938
98802.2440404612571
98801.991164419916458
98801.751985772745684
98801.514060465822695
98801.269626317778602
98801.015332089635194
98800.753884607707732
98800.493183853512164
98800.241518589988118
98799.999079475484905
98799.758669909380842
98799.513002014427911
98799.261350427594152
98799.008752635054407
98798.760793002889841
98798.520195662174956
98798.288956456177402
98798.070103755773744
98797.868183469530777
98797.683485245332122
98797.508225536017562
98797.32883981805935
98797.135075395766762
98796.926937270691269
98796.711156638819375
98796.492271508366684
98796.267824222435593
98796.033275247056736
98795.789196433426696
98795.544710486195982
98795.310994506740826
98795.091531324389507
98794.879962534629158
98794.664874869311461
98794.438501010052278
98794.201584131486015
98793.960569654984283
98793.721421731155715
98793.486632048268802
98793.255226213135757
98793.025169142259983
98792.796629606775241
98792.574270850091125
98792.364906453280128
98792.171805464517092
98791.991624919784954
98791.814774631377077
98791.630542241444346
98791.434259967762046
98791.229794352329918
98791.025447778272792
98790.827799387348932
98790.638870121605578
98790.456384769262513
98790.277290943951812
98790.100473302663886
98789.926452879357385
98789.7549897472054
98789.584970102907391
98789.415791165316477
98789.249019243768998
98789.086958271218464
98788.930028350034263
98788.776195031940006
98788.623864496199531
98788.474019085886539
98788.32952977916284
98788.192539460695116
98788.062589337539976
98787.936364830020466
98787.809437383781187
98787.677659500928712
98787.538237305605435
98787.38918878165714
98787.231212186918128
98787.066414377521141
98786.89877342969703
98786.733857271130546
98786.576794458305812
98786.430369224573951
98786.294264016425586
98786.165252432299894
98786.039500136248535
98785.914138492196798
98785.788140995631693
98785.66213090949168
98785.537077695975313
98785.413924945969484
98785.29336179458187
98785.175292584302952
98785.058197482489049
98784.939174240629654
98784.814877901415457
98784.683247638182365
98784.544924166882993
98784.40317339503963
98784.262036744155921
98784.124819746473804
98783.993298904213589
98783.868042018453707
98783.749612037485349
98783.638522157969419
98783.534103918573237
98783.433916422363836
98783.334116610800265
98783.230468087465852
98783.119479958564625
98782.999573271008558
98782.871226977091283
98782.736419097927865
98782.598001612117514
98778.659500514724641
98778.622468147907057
98778.579187092851498
98778.530819032472209
98778.479287243637373
98778.426135731919203
98778.371947467850987
98778.316964954690775
98778.262009458630928
98778.209045003721258
98778.160978030457045
98778.120736695971573
98778.089894616947277
98778.067664371425053
98778.051223533810116
98778.037125779213966
98778.022955801672651
98778.008241583578638
98777.994244050787529
98777.982907752855681
98777.975614880342619
98777.972220311668934
98777.971067859063623
98777.96945885765308
98777.964272451368743
98777.952734056030749
98777.933150062628556
98777.905293492949568
98777.870493826994789
98777.831510825330042
98777.792005678202258
98777.755508134534466
98777.724348676594673
98777.69922014659096
98777.679423740759376
98777.663468635233585
98777.649806607936625
98777.637449092741008
98777.626366092197713
98777.617436852073297
98777.612159976823023
98777.61203319185006
98777.618431225957465
98777.63195533741964
98777.652053723621066
98777.676897652228945
98777.703740734403254
98777.729790816301829
98777.75305234384723
98777.773039403735311
98777.791084975484409
98777.809905980277108
98777.832628094678512
98777.86159337493882
98777.897333803994115
98777.938379489511135
98777.981934183815611
98778.024917043716414
98778.064912242203718
98778.100585439548013
98778.131491704145446
98778.157775996121927
98778.179947404918494
98778.198948239776655
98778.216112085734494
98778.23308755470498
98778.251585267600603
98778.27300807350548
98778.298017547189374
98778.326372631141567
98778.357012196167489
98778.388374961359659
98778.418784541281639
98778.44674032907642
98778.471171466662781
98778.49155209150922
98778.508024129623664
98778.521509262631298
98778.533634440842434
98778.546437111101113
98778.562014612180064
98778.58208902705519
98778.607517313066637
98778.638104844838381
98778.672735722240759
98778.709754291223362
98778.747466064422042
98778.784429298262694
98778.819544159807265
98778.852006982458988
98778.881249300393392
98778.907002808351535
98778.929264324600808
98778.948535621180781
98778.965838104602881
98778.982432484539459
98778.999588703387417
98779.018239590674057
98779.038714154507034
98779.060734601211152
98779.083630774941412
98779.106552383163944
98779.128733013742021
98779.149612240929855
98779.16885614641069
98779.186349583455012
98779.202269616682315
98779.217138509804499
98779.231775604901486
98779.247148515874869
98779.264250134772738
98779.283971567507251
98779.30691084630962
98779.333264427346876
98779.36296371712524
98779.395851932567894
98779.431768833048409
98779.47062404321332
98779.51237136630516
98779.556791565395542
98779.603136886522407
98779.64993207846419
98779.695080101897474
98779.736172613673261
98779.77114814237575
98779.799008690722985
98779.820284793589963
98779.83700176239654
98779.852164870986599
98779.868882055860013
98779.889522753845085
98779.915224916432635
98779.945939254030236
98779.980970383228851
98780.019636958968476
98780.061890512210084
98780.108415349604911
98780.160331960010808
98780.218639866739977
98780.283691314369207
98780.354915034724399
98780.430792815881432
98780.509258211415727
98780.588192454510136
98780.665819683650625
98780.740865167579614
98780.812412849278189
98780.87964220198046
98780.941614502953598
98780.997281763149658
98781.045783596549882
98781.08687526427093
98781.121331739908783
98781.151019946031738
98781.178635831791325
98781.207136537879705
98781.239055158759584
98781.275918146595359
98781.318017768775462
98781.364558248853427
98781.414049699989846
98781.464798800312565
98781.515248127063387
98781.564199875618215
98781.610833863727748
98781.654617713444168
98781.695258973748423
98781.732723940469441
98781.767161673255032
98781.79887124679226
98781.828286089425092
98781.855882244140957
98781.882054723770125
98781.907051888483693
98781.930990687367739
98781.953929769821116
98781.976022931776242
98781.997649268945679
98782.019526552059688
98782.042668104520999
98782.068229211814469
98782.097348262454034
98782.130955974935205
98782.169632042452577
98782.213456137746107
98782.262098517079721
98782.314967170634191
98782.371288867419935
98782.430145942358649
98782.490554341231473
98782.551493567822035
98782.612007698669913
98782.671287612465676
98782.728825418482302
98782.784492441409384
98782.838589277933352
98782.891786047606729
98782.944953048296156
98782.998924038125551
98783.054297866605339
98783.111315082045621
98783.169798295348301
98783.229213401209563
98783.288868897841894
98783.348156745429151
98783.406886141077848
98783.46544684995024
98783.524810668022837
98783.586377807572717
98783.651686889250414
98783.722094951648614
98783.798510764885577
98783.881215701985639
98783.969813417919795
98784.063298114357167
98784.160261037628516
98784.259180736029521
98784.358731499902206
98784.457962386266445
98784.556334090244491
98784.653662839831668
98784.75006734955241
98784.845900325657567
98784.941624485654756
98785.037700332468376
98785.134618229029002
98785.232942952119629
98785.333365157290245
98785.436694847012404
98785.543823011801578
98785.655594125419157
98785.772794126649387
98785.896184586032177
98786.026400691494928
98786.163923471220187
98786.309107920969836
98786.462258328087046
98786.623674657748779
98786.793673028048943
98786.972601852728985
98787.16089234672836
98787.359120791908936
98787.567988695096574
98787.788313751865644
98788.021057977399323
98788.267370412155287
98788.528577490302268
98788.806069087062497
98789.101156366043142
98789.414881151547888
98789.747870938343112
98790.100324844243005
98790.472084399545565
98790.862807833647821
98834.410959366214229
98834.511224161411519
98833.366972436910146
98833.202008252032101
98833.150174760725349
98832.953506318837753
98832.73533214701456
98832.48300353155355
98832.168019425313105
98831.793687245692126
98831.367430691316258
98830.923543571771006
98830.465315639987239
98829.953574507730082
98829.391553168214159
98828.846688089775853
98828.346160103712464
98827.852216985847917
98827.334830511550535
98826.793641457086778
98826.221938157861587
98825.623691782326205
98825.043721002541133
98824.516341310809366
98824.017702858574921
98823.511853945892653
98823.009883482853184
98822.529605567411636
98822.064251264862833
98821.598570963906241
98821.121679975840379
98820.623828434181632
98820.102580931343255
98819.579578686127206
98819.075382541661384
98818.587073086338933
98818.102734753789264
98817.620247503640712
98817.146858284730115
98816.689540202118224
98816.251054618260241
98815.827962210445548
98815.407970607164316
98814.973976585490163
98814.517726321428199
98814.049805953967734
98813.591520640649833
98813.154825542558683
98812.735312935881666
98812.317508382417145
98811.890896387238172
98811.45873584873334
98811.028145552394562
98810.604244692469365
98810.188558609879692
98809.777415005504736
98809.36595035524806
98808.956372025000746
98808.561930620009662
98808.195327342924429
98807.85583818712621
98807.528675761102932
98807.195633499723044
98806.845796102759778
98806.483364032814279
98806.123483857212705
98805.780212453915738
98805.449073168565519
98805.114514580884133
98804.769595246645622
98804.421994982563774
98804.084546491503716
98803.762010521764751
98803.44755379857088
98803.133299216235173
98802.820099206815939
98802.519011380703887
98802.239974395328318
98801.983087940461701
98801.73889898325433
98801.496121142656193
98801.249033586151199
98800.997278380615171
98800.744190033641644
98800.49488971613755
98800.252910036389949
98800.016492800656124
98799.778969903069083
98799.535010272767977
98799.284788797100191
98799.034226030024001
98798.789369281046675
98798.553281422908185
98798.326704984472599
98798.111735389160458
98797.911533594713546
98797.725459966619383
98797.544937957107322
98797.356809143646387
98797.152625186732621
98796.934356843310525
98796.710121535914368
98796.48510679496394
98796.257785285983118
98796.023763420715113
98795.782945484403172
98795.542624115711078
98795.31202347924409
98795.093265611576498
98794.879340018625953
98794.659341430931818
98794.427247037587222
98794.185903241363121
98793.942916260260972
98793.703755407070275
98793.469554810988484
98793.238480026717298
98793.008004826246179
98792.777941274311161
98792.551726721547311
98792.335293626674684
98792.132740140936221
98791.942755699637928
98791.75786042684922
98791.569089289158001
98791.371208398777526
98791.166090524129686
98790.961340060952352
98790.764304241747595
98790.577450783050153
98790.397693674036418
98790.220338500424987
98790.043259404163109
98789.866567173405201
98789.691116777219577
98789.516639351728372
98789.342836003153934
98789.171150300520821
98789.003406040937989
98788.84033062439994
98788.68187086522812
98788.527853364983457
98788.379431011053384
98788.238336804584833
98788.104809642405598
98787.976334767372464
98787.848733158039977
98787.717949204190518
98787.582192763060448
98787.441345269646263
98787.295298100347281
98787.143684642534936
98786.985965997344465
98786.823589753781562
98786.660802014681394
98786.503098850356764
98786.353869147831574
98786.212726255558664
98786.076228239486227
98785.940798219147837
98785.805149832740426
98785.670557925564935
98785.539239541030838
98785.412873738619965
98785.291976711610914
98785.175883426825749
98785.062312741603819
98784.947885418703663
98784.828743247970124
98784.701992956746835
98784.56710586725967
98784.426634714152897
98784.284770869271597
98784.145178733117064
98784.009871413582005
98783.879256041444023
98783.753029055849765
98783.631550183039508
98783.51574144710321
98783.405856765428325
98783.300715992008918
98783.197647172841243
98783.092994540042127
98782.983368768676883
98782.8667214508896
98782.742730812053196
98782.612492206666502
98782.478372905097785
98782.343626130532357
98778.568099301701295
98778.537504444320803
98778.503159499785397
98778.464033153853961
98778.420669105500565
98778.374315357490559
98778.325995747567504
98778.276246009845636
98778.225426084536593
98778.174472278667963
98778.125492282604682
98778.081485614893609
98778.045171284436947
98778.017636423988733
98777.997660622277181
98777.982212412738591
98777.968048561830074
98777.953317787163542
98777.938200369608239
98777.924313311770675
98777.913535690517165
98777.906992374395486
98777.904511883243686
98777.904481711157132
98777.904386237278231
98777.901526073648711
98777.893460639461409
98777.878358833520906
98777.855504577164538
98777.825725239454187
98777.791582664911402
98777.756765805694158
98777.725125681317877
98777.69966635775927
98777.681805221291143
98777.67109998781234
98777.66563050232071
98777.662928535559331
98777.660992146353237
98777.658979321015067
98777.657347070547985
98777.657581132254563
98777.661783207193366
98777.671975460805697
98777.689266866611433
98777.71330954527366
98777.742250162045821
98777.77319502249884
98777.803055069976836
98777.829606555009377
98777.852374601221527
98777.872967646166217
98777.894583132016123
98777.920645994061488
98777.953323412308237
98777.992668818522361
98778.036686257750262
98778.082111366456957
98778.125592020209297
98778.164591199485585
98778.19786014474812
98778.225382842530962
98778.247997300684801
98778.266957888394245
98778.283562683252967
98778.299075457936851
98778.3147388966172
98778.331792538432637
98778.351280323331594
98778.373867070695269
98778.399712510596146
98778.428385612714919
98778.458788167292369
98778.489215035559027
98778.517632660004892
98778.542073796197656
98778.561166185929324
98778.57467272352369
98778.583698823102168
98778.590482803541818
98778.597851179569261
98778.608565473143244
98778.624703021603636
98778.647191356911208
98778.675781096419087
98778.709316430118633
98778.746103058481822
98778.784287312533706
98778.822186669902294
98778.858375328563852
98778.891692349730874
98778.921206533530494
98778.946200463062269
98778.966425123464433
98778.982285460631829
98778.994976157686324
98779.006238485409995
98779.01785451064643
98779.031266032485291
98779.047258594669984
98779.065847499936353
98779.086492013550014
98779.108367930486565
98779.13064547914837
98779.152613516183919
98779.173636329782312
98779.193233341196901
98779.211144543689443
98779.227485085808439
98779.24278701460571
98779.257940986411995
98779.274060780691798
98779.29235665781016
98779.313801519470871
98779.338983837151318
98779.368058986176038
98779.400814969529165
98779.436898245636257
98779.475922528377851
98779.517493457286037
98779.561114876152715
98779.605946906624013
98779.650630656047724
98779.693373902715393
98779.732375614796183
98779.7662604557554
98779.794552725899848
98779.818034077281482
98779.838636055486859
98779.858962733429507
98779.881530091835884
98779.908133606106276
98779.939492591234739
98779.975461136913509
98780.015533437355771
98780.05940155746066
98780.107377131687826
98780.160444100489258
98780.219818552068318
98780.286407710431376
98780.36028078320669
98780.440444398729596
98780.525077846628847
98780.611970461133751
98780.699085220854613
98780.784914166739327
98780.868462212194572
98780.949025510184583
98781.025835850770818
98781.097829158286913
98781.163733010631404
98781.222453675989527
98781.273635633173399
98781.318094083268079
98781.357932080267346
98781.396121311903698
98781.435790597228333
98781.479447033838369
98781.528404821801814
98781.582580737187527
98781.640757186891278
98781.701117229618831
98781.761830366871436
98781.821461268671555
98781.879116008014535
98781.934424321050756
98781.987329220894026
98782.037913484789897
98782.086241863595205
98782.132375662433333
98782.176424187971861
98782.21858849763521
98782.259133861967712
98782.298337321539293
98782.336465144428075
98782.37374406127492
98782.410390134071349
98782.446700462169247
98782.483089179353556
98782.520175421552267
98782.558812084927922
98782.599961837782757
98782.644498197187204
98782.69309277474531
98782.74616346230323
98782.803890418697847
98782.866233725770144
98782.932896406637155
98783.003388739089132
98783.077074478831491
98783.153143072442617
98783.230658930857317
98783.308683673283667
98783.386375829679309
98783.463083537601051
98783.538555366118089
98783.612985446918174
98783.687020173310884
98783.761525739610079
98783.837343254970619
98783.915026264090557
98783.994692864682293
98784.075990110490238
98784.158195908574271
98784.240450973200495
98784.322153737055487
98784.403226767579326
98784.484268826345215
98784.56652338951244
98784.651695671011112
98784.741619690103107
98784.83786989217333
98784.941446132346755
98785.052606787096011
98785.170886478968896
98785.295259443650139
98785.424357206356945
98785.556727672257693
98785.691000031059957
98785.826076032259152
98785.961269817504217
98786.096278381868615
98786.231097812851658
98786.36592000440578
98786.501092362668714
98786.637107169313822
98786.77456571982475
98786.914204617991345
98787.056855861723307
98787.203409236200969
98787.354735085129505
98787.51164528557274
98787.67484230073751
98787.84496971644694
98788.022618633622187
98788.208284099775483
98788.402392899180995
98788.605306528232177
98788.81733614463883
98789.03879891410179
98789.270002309349366
98789.511235666155699
98789.762824915596866
98790.025241187002393
98790.299155598244397
98790.585464479925577
98790.885249517450575
98791.199776644643862
98791.530468207783997
98791.878754335382837
98792.245893451166921
98792.632830283750081
98793.040047601883998
98793.467572060078965
98793.915072395946481
98831.115937488502823
98832.480527801613789
98832.38122666918207
98832.405717220681254
98832.507224967383081
98832.47810179348744
98832.304776735370979
98832.064163951319642
98831.829324836508022
98831.55261146693374
98831.166343176824739
98830.713638146553421
98830.242499576386763
98829.744393642002251
98829.214533576887334
98828.689399887094623
98828.191016237731674
98827.684622751170537
98827.154510285516153
98826.620417612211895
98826.075125855932129
98825.494745821401011
98824.912251410234603
98824.377310080104508
98823.87827292275324
98823.374578502131044
98822.873622164916014
98822.403234108031029
98821.961406685353722
98821.525106735964073
98821.070525443807128
98820.584239873074694
98820.067301513772691
98819.537078199718962
98819.013578386016889
98818.503163546454743
98818.00492019460944
98817.519091697657132
98817.045005807070993
98816.584998901584186
98816.145007541286759
98815.727079492222401
98815.322082491125911
98814.907773075028672
98814.468911233532708
98814.011639310163446
98813.555546642310219
98813.11339890389354
98812.685412331702537
98812.267021703475621
98811.855878989197663
98811.451045536639867
98811.050407311879098
98810.652489812957356
98810.256300679422566
98809.858833550053532
98809.457427790344809
98809.054147403949173
98808.660141186977853
98808.287059419846628
98807.938767390704015
98807.607046173725394
98807.275748666070285
98806.930003604575177
98806.567889698897488
98806.204480306972982
98805.856060878577409
98805.521631658513797
98805.186632221011678
98804.841029883580632
98804.489393369294703
98804.145460860687308
98803.818455730215646
98803.506258954774239
98803.200196871519438
98802.895488212234341
98802.595674240787048
98802.30793815094512
98802.036041508603375
98801.777368354421924
98801.526843473460758
98801.279743207487627
98801.035085103008896
98800.793869620407349
98800.557315910395118
98800.324762709147763
98800.095088701214991
98799.864027016548789
98799.627932400151622
98799.386158115565195
98799.141537245930522
98798.899002742080484
98798.663126937768538
98798.435726327792509
98798.217785403307062
98798.010411307506729
98797.811817176247132
98797.615796057260013
98797.412408055897686
98797.195849363779416
98796.968775929912226
98796.73831239665742
98796.509015954245115
98796.280284263251815
98796.04835634608753
98795.812285083535244
98795.576723891528673
98795.348711846803781
98795.130117013366544
98794.914576317562023
98794.69217312001274
98794.457079644489568
98794.211847774437047
98793.964840885688318
98793.722702651662985
98793.487897969796904
98793.257989512363565
98793.029220857599284
98792.800134619916207
98792.572383531325613
98792.349977212696103
98792.136802362118033
98791.933420815737918
98791.735986541840248
98791.538934121883358
98791.338008872422506
98791.133810142506263
98790.931616402362124
98790.736998116262839
98790.551723428448895
98790.372788977634627
98790.195522600231925
98790.016801059871796
98789.836298365204129
98789.654974240460433
98789.472791160776978
98789.289857881318312
98789.107945181327523
98788.930007060538628
98788.759000333506265
98788.597383924410678
98788.445686476654373
98788.303366193125839
98788.169182929836097
98788.040194605928264
98787.911870764946798
98787.780227515046136
98787.643420784748741
98787.502569807402324
98787.36026617938478
98787.217440249500214
98787.072229092518683
98786.921804799028905
98786.765619273370248
98786.606688179672346
98786.450077938192408
98786.298977222802932
98786.152554707834497
98786.007942936659674
98785.862898533072439
98785.7180551593774
98785.576529240963282
98785.441555345343659
98785.314591836562613
98785.195190695230849
98785.081314383583958
98784.969485153342248
98784.855303531265236
98784.734528486995259
98784.604633638416999
98784.466116770054214
98784.322505067510065
98784.178672797163017
98784.038568034869968
98783.903732394057442
98783.773337308972259
98783.645772802468855
98783.520550239089062
98783.398670127120567
98783.281578089852701
98783.169928455070476
98783.062709205827559
98782.957040612425772
98782.849299713750952
98782.736512821575161
98782.617137726541841
98782.491540062052081
98782.361792459865683
98782.230969081298099
98778.447373279719613
98778.415210860024672
98778.381248543955735
98778.344777223013807
98778.305980585690122
98778.265468285331735
98778.223571413327591
98778.180212828359799
98778.135306005875464
98778.089690034932573
98778.045646723403479
98778.006273972598137
98777.973999086505501
98777.949327539477963
98777.930497221750556
98777.914410302124452
98777.898306007235078
98777.881125738786068
98777.863801168306964
98777.848475829101517
98777.83726877864683
98777.831121599578182
98777.829355315319845
98777.830095809345949
98777.831048418520368
98777.829987003962742
98777.825041492716991
98777.814745631170808
98777.79825150121178
98777.775860594279948
98777.749288527324097
98777.721651686282712
98777.69677613976819
98777.678126415514271
98777.667823829629924
98777.665989411223563
98777.67067570798099
98777.678773481529788
98777.687342544071726
98777.694622321811039
98777.700530367961619
98777.706482643843628
98777.71490064774116
98777.728156343160663
98777.747832664696034
98777.774041855402174
98777.805194326414494
98777.838509893947048
98777.87095118513389
98777.900289801487816
98777.926166107150493
98777.950386642260128
98777.976130372961052
98778.006531179024023
98778.043317022238625
98778.08608156646369
98778.132448158838088
98778.178948561821016
98778.2221239489445
98778.259550511123962
98778.29033228760818
98778.315042067304603
98778.33514730722527
98778.352278132471838
98778.367745129129617
98778.382487084774766
98778.397245261454373
98778.412814544208231
98778.430089971530833
98778.450061084411573
98778.473559462741832
98778.500814645463834
98778.531044793169713
98778.562339368407265
98778.591935361386277
98778.616999448087881
98778.635572985454928
98778.647218527563382
98778.653270956652705
98778.656470126545173
98778.660202693106839
98778.667588204509229
98778.68078885464638
98778.7006979486614
98778.726988324502599
98778.758508081460604
98778.793677865935024
98778.830802364653209
98778.868234060777468
98778.904421123937936
98778.937929198291386
98778.96737126095104
98778.991553207204561
98779.009828221445787
98779.022448631367297
98779.030712812687852
98779.036718058487168
98779.042723459468107
98779.050617644767044
98779.061619207248441
98779.076166510683834
98779.093976905569434
98779.114344831585186
98779.136328332897392
98779.158971328753978
98779.181373551473371
98779.202709412245895
98779.222338377672713
98779.239964056803728
98779.255849337612744
98779.27083275737823
98779.286144742058241
98779.303176037938101
98779.32320486617391
98779.347069836629089
98779.375058055433328
98779.406985465888283
98779.442348070369917
98779.48052850701788
98779.520916784502333
98779.562898942167521
98779.605664243033971
98779.64810425885662
98779.688936659440515
98779.726939037413104
98779.761290003763861
98779.791934838329325
98779.819768112676684
98779.846477635655901
98779.874050719445222
98779.904250697683892
98779.938205302678398
98779.976323769675219
98780.018479503167327
98780.064373119283118
98780.114043072564527
98780.168145079747774
98780.227798059480847
98780.29418446366617
98780.368004431700683
98780.449081768805627
98780.536258409905713
98780.627688785840292
98780.721324467493105
98780.815398889695643
98780.908649730044999
98781.000269869531621
98781.089625774533488
98781.175911281694425
98781.257961499053636
98781.334386447284487
98781.404084693116602
98781.466789891870576
98781.52341584880196
98781.576066291090683
98781.62760783873091
98781.680927533889189
98781.73820284413523
98781.800398834908265
98781.867118578273221
98781.936890800629044
98782.007811795992893
98782.078138498793123
98782.146694786089938
98782.213008582199109
98782.277191093759029
98782.339672444650205
98782.400845505180769
98782.460891500420985
98782.519801331174676
98782.577456805011025
98782.633740644960199
98782.688640133914305
98782.742293311734102
98782.794952794254641
98782.846935553301591
98782.89870306524972
98782.950706301417085
98783.003391872698558
98783.057274044171209
98783.112946488297894
98783.171009115714696
98783.232001736396342
98783.296411789808189
98783.364648075599689
98783.436989180132514
98783.513537014950998
98783.59422129036102
98783.6787691515201
98783.766752829498728
98783.857593931767042
98783.950598673094646
98784.044997278644587
98784.140060421719681
98784.235228928620927
98784.330234037712216
98784.425225773753482
98784.520735820115078
98784.617526134592481
98784.716271663739462
98784.817306218290469
98784.920495202139136
98785.02528605000407
98785.130884866099223
98785.236495275152265
98785.341547809613985
98785.445983471421641
98785.550494295312092
98785.656535035086563
98785.766011349158362
98785.880911976695643
98786.002938448524219
98786.133199900374166
98786.272052850355976
98786.41909733787179
98786.573358192414162
98786.733530469544348
98786.898232506020577
98787.066155735490611
98787.236202284053434
98787.407584638436674
98787.579870859161019
98787.752871901146136
98787.926597682366264
98788.101257946676924
98788.277265761076706
98788.455245124307112
98788.636019857949577
98788.82055770039733
98789.009882602957077
98789.204979512505815
98789.406681155305705
98789.615641013617278
98789.832321884707198
98790.057105963380309
98790.290444769401802
98790.532811569108162
98790.784630876383744
98791.046229831801611
98791.317885312237195
98791.599836027657147
98791.892331924653263
98792.195638917241013
98792.510101611653226
98792.83623162668664
98793.174765669435146
98793.526669044207665
98793.893089553617756
98794.27533880872943
98794.674845901725348
98795.092982433925499
98795.530898072742275
98795.989388980393414
98796.468786413810449
98796.96898389904527
98797.48955343911075
98832.317009222766501
98833.224843473450164
98832.941853380718385
98832.664830917754443
98832.578145135848899
98832.536912313953508
98832.386917423864361
98832.150946573528927