/*--------------------------------*- C++ -*----------------------------------*\
  =========                 |
  \\      /  F ield         | OpenFOAM: The Open Source CFD Toolbox
   \\    /   O peration     | Website:  https://openfoam.org
    \\  /    A nd           | Version:  12
     \\/     M anipulation  |
\*---------------------------------------------------------------------------*/
FoamFile
{
    format      ascii;
    class       volScalarField;
    location    "0.0069";
    object      rho_0;
}
// * * * * * * * * * * * * * * * * * * * * * * * * * * * * * * * * * * * * * //

dimensions      [1 -3 0 0 0 0 0];

internalField   nonuniform List<scalar> 
75962
(
1.1505330139217246899
1.1498703114249257951
1.1514922285071091945
1.1515105962279879037
1.1523526666601759949
1.1529156725630760327
1.1530450520430521877
1.1532385766365274016
1.1531360002171735513
1.1526365929256552345
1.1516205673341142202
1.1507043129951590732
1.1513551413990095185
1.1529266482119493453
1.1536338593769839278
1.1531251892528555647
1.1524258963261659883
1.1521263608464742401
1.1521213748436414104
1.1523340092600034001
1.1527529578480080197
1.1528641771059204846
1.1524906673840555893
1.1522206015680074298
1.1524572692609993396
1.1526927102268040848
1.1525507356015907146
1.1523671890344275859
1.1522175966593741769
1.1520202161747441494
1.1519161915069895397
1.15204162418597722
1.1521497908614086736
1.1519482050577547483
1.1515730864281190637
1.1513046412785434836
1.1511588858324071083
1.1510321113914130375
1.1509558599968845449
1.1510399710783150162
1.1513093338521880327
1.1516957411225019481
1.1520431932709451761
1.1522249468598639854
1.1521426159259324784
1.1517216558465452891
1.1510375508954402424
1.1503814467497546215
1.1501133707081718782
1.1503392485882188989
1.1507524625958513997
1.1509615296618520563
1.1508321053687948776
1.1504303977376681978
1.1498891390486254416
1.1494047325113581071
1.1490977340288035524
1.1489075834620605665
1.1487320986272933077
1.1485768248197898433
1.1485870860451792286
1.1488228827662119169
1.1491238193714263804
1.1492402592815829099
1.1490320724978362321
1.1486810400562497136
1.1484594716219946875
1.1485572390597043047
1.1488636776577307863
1.1490521148305870014
1.1488989996262839455
1.1484708970690606922
1.1480097743262909216
1.1476784334857672576
1.1474485504328970631
1.1471958116443614628
1.1469127553807980657
1.1467306558736245492
1.1467558518197462636
1.1469407774866258176
1.1471381720595152931
1.1472320896622432151
1.1471940527171939905
1.1470592561902592799
1.146893805592321014
1.1468109618920878656
1.14689376612292393
1.1470546661890437257
1.147066509033574544
1.1467516801085495537
1.1461429677493084611
1.1454674360933916333
1.1449528482133022322
1.1446869166059054912
1.1445831570209048511
1.1445246354118796539
1.1444694318455908011
1.1444501238436892709
1.1444951446034330456
1.1445861092799356484
1.1447011605873773643
1.1448831061125157582
1.1452148430805308976
1.1456887088790879137
1.1461167150116591262
1.1462358801400873709
1.1459169681722298773
1.145302416778607002
1.1447147778989315015
1.1444256790306930327
1.1444909511589038686
1.1447664524412359821
1.1450509769612284838
1.1452275260092230624
1.145296314878049726
1.1453267768958701467
1.1453846784072889697
1.1454743807823839497
1.1455307574870454701
1.1454712252806786843
1.1452760341513792408
1.1450271984883888532
1.144863474448868601
1.1448706922074347592
1.1450074789508104534
1.1451375688631264538
1.1451449134776485739
1.1450134796659183767
1.14482151243893715
1.1446601603559165561
1.1445635373112104105
1.1445184011717157713
1.1444979935800680959
1.1445188433737276679
1.144623934312246627
1.1448351792900852697
1.1451293252187229044
1.1454552755732867464
1.1457751363345392015
1.1460584828593147755
1.1462489196160667859
1.1462672768675485901
1.1460542177202970304
1.1456350004325850378
1.1451216888319923903
1.144666326854855587
1.1443983315759751473
1.1443857931979448672
1.1446418924771151193
1.1451369140383413914
1.1458067462811618586
1.1465659601181750205
1.1473006152449576334
1.1478871606174094744
1.1482257162764315517
1.1482753150304685352
1.1480707896084501041
1.1477054599659552991
1.1472706469779614391
1.1468455360220144446
1.1464891384017896758
1.1462454512381303751
1.1461504011593715013
1.1462158449825916584
1.1464200851272841053
1.1467133139138687703
1.1470437233479700012
1.1473682208219009304
1.1476501268448380255
1.147844852352145617
1.1479010099783837351
1.1477790577064568289
1.1474810525416041518
1.1470635037348744234
1.1466110851844715235
1.1462043029214241674
1.1458999545023962341
1.1457313012093459648
1.1457226976840413357
1.1459020868987952468
1.1462918584480163986
1.1468898878905757766
1.1476591835903100502
1.1485352960586996396
1.1494451564202678995
1.1503223717345787414
1.1511186584491097662
1.1518001240394113438
1.1550494247149230009
1.1552152466817426912
1.1553690008316392923
1.1554816219710193348
1.1555488142243330874
1.1555847484247594448
1.1556049062667417271
1.1556092143811056427
1.1555769645489346598
1.1554805631945721522
1.155304639093915231
1.1550640522323336601
1.1548056338883203598
1.1545868768127436343
1.1544480895306787893
1.1543927413925259007
1.1543861341306513868
1.1543779831604255026
1.154329361733718029
1.1542325394015526818
1.1541083405946062079
1.1539931786658632618
1.1539216327852424016
1.153916353586644794
1.1539837354839552752
1.1541126593894601715
1.154277353649304505
1.1544433963287052958
1.1545749167225096699
1.1546452599509691161
1.1546460963948663725
1.1545900949882974551
1.1545062140727129218
1.1544285716559719024
1.1543848569393519998
1.1543880560259796031
1.1544343405856409834
1.1545055967160942068
1.1545790025251392308
1.1546326240021893561
1.154656620769745512
1.1546481230151082187
1.1546176419227074383
1.1545867249208194849
1.1545826856758643064
1.1546337947159970305
1.1547562662525803212
1.1549442736220145722
1.1551686557497438113
1.155384714044208172
1.1555486160861663247
1.1556350690681858051
1.155648655848009021
1.1556217890574700391
1.1555994705533951805
1.1556200887472483085
1.1557024612627002647
1.1558429558238225709
1.1560220448749420896
1.156217305254098493
1.1564120331057239355
1.156595629901302047
1.156759405899197235
1.1568930288917280702
1.1569854227178029138
1.1570298511979426603
1.1570294906116451727
1.1569983720107044345
1.1569575411397414744
1.1569282913064051765
1.1569253088193058865
1.1569538443123856819
1.1570116553910043677
1.1570916993934381445
1.1571832624981417403
1.1572716234687543402
1.157338278204466997
1.1573639247559661669
1.1573334002986497282
1.1572413194372932477
1.157095229214381682
1.1569139431479300573
1.1567250380560225587
1.1565554590883182495
1.1564249519904543639
1.1563418416383368648
1.1563032047657872958
1.1563001726403951963
1.1563232173479986997
1.1563638424719737685
1.1564152979502591023
1.1564699442816939179
1.1565188007520847968
1.1565530075381773578
1.1565675245895421508
1.156563074942533742
1.156546544407065058
1.156530136171590728
1.1565266361498833803
1.1565438889114705301
1.156581306286805555
1.1566323446286168597
1.1566891058544159776
1.1567444074942048182
1.1567934823490388929
1.1568342381708069944
1.1568644502267224627
1.1568808056685111474
1.1568796253270527963
1.1568584158559245267
1.1568166578517886656
1.1567579892988495427
1.1566900943272793167
1.1566205795819717306
1.1565548044750748602
1.1564955148283695419
1.1564429371626625542
1.1563985822505820078
1.1563684683230619488
1.1563646157611242593
1.1564040063813980641
1.1565053556211390973
1.1566797426211761213
1.1569224637487942609
1.1572090373311623157
1.1574999177290825614
1.157750181488808483
1.1579244523739595785
1.1580078403153650779
1.1580095082237671367
1.1579573005641712324
1.1578831227739414533
1.1578112132494742248
1.1577483762459610528
1.157685290043513282
1.1576039658825727496
1.1574894343607271541
1.157339826502997715
1.1571691178872840489
1.1570030295230715467
1.1568694527440819275
1.1567888828732655337
1.1567686353856514447
1.1568033740454144453
1.1568809145056555554
1.1569885722369748215
1.1571186575487888426
1.1572688449433465863
1.1574389030852800797
1.1576238859471068565
1.1578095247325046468
1.1579718051791243472
1.1580825417056019866
1.1581182511412102532
1.158068314162634227
1.1579395790417765788
1.1577552886309510072
1.1575482541368511402
1.1573514373036539737
1.1571891839319292661
1.1570730629761805108
1.1570023899532211331
1.1569692968833895641
1.1569642690538954888
1.15697977703371091
1.1570115185994032103
1.1570564510438796635
1.1571096483677281164
1.1571622258105480618
1.1572035329536758397
1.1572246254501799001
1.1572210989912861123
1.1571954723533555143
1.1571558613097379098
1.1571117155403758403
1.1570703468299232686
1.1570336315551736917
1.1569975808688837127
1.1569546128628171999
1.1568966413300423302
1.1568187807396372868
1.1567207378372790227
1.1566066842042239671
1.1564846884828337004
1.1563636283736058452
1.1562516807967868626
1.1561576041373886614
1.1560893477609761604
1.1560534653899383617
1.1560547630767865623
1.1560943580551130694
1.1561701344562207439
1.1562757291750500599
1.1564003552635768735
1.1565309055832373453
1.156653725675224953
1.1567583346479146655
1.1568391387117940017
1.1568981250422640805
1.1569427920776460539
1.1569850720810654909
1.1570365046811743603
1.1571042735944305768
1.1571879741810660036
1.1572786165548170079
1.1573609202075931801
1.1574171408733129329
1.1574311978564957304
1.1573940064109786707
1.1573067090501354404
1.1571810246131619682
1.1570363254763897931
1.1568949239946237917
1.1567772218092120529
1.156697992251424667
1.1566649969674198672
1.1566785848547784799
1.1567323381184742015
1.1568153399322269603
1.1569146923984283681
1.1570187347017859558
1.1571185855094421324
1.157208926212722977
1.1572865030579659873
1.157349281393570628
1.1573952147112640532
1.1574213507803841061
1.1574240168182958755
1.1574001380322525012
1.157348166477808471
1.1572698024057421762
1.1571702890645860773
1.1570579765962112351
1.1569425268447608435
1.156831627333162027
1.1567303667409725154
1.1566409079889776734
1.156562525881470016
1.1564928325371437445
1.156428547722250455
1.1563659889197643871
1.1563016140145634392
1.1562319714240829605
1.1561527357763972113
1.1560601516995974158
1.1559521740253981825
1.1558301504474499666
1.1556998926104622427
1.1555707836205648675
1.1554552718897659336
1.155367002554172462
1.1553176734590635544
1.1553141721959339083
1.1553565550831537134
1.1536196319376861297
1.1535929044187269721
1.1534944128988380285
1.1526177261315706524
1.1517318483918621563
1.1505378584168075573
1.1503608189049852051
1.1517268836613110405
1.1527120195670286229
1.152953266016361944
1.1524760133468554546
1.1517599896804959769
1.1520377328391484539
1.1532813997253266169
1.1539698612058504334
1.1535077274223271004
1.1528664267973021129
1.1526910775809198206
1.1525892428394046707
1.1526675503660246402
1.1530548467033359117
1.1531571086629806011
1.1526090086111340227
1.1521102511585259442
1.1522767922207979296
1.1526112473171437056
1.1525015852052344911
1.1521689808185220372
1.1518908393375426602
1.1516952871684675852
1.1517261944338299529
1.1520626707872965167
1.1523773904771479337
1.1523621007993645193
1.152151617754988866
1.1519810530740135501
1.1517947344591070724
1.1515263299056317514
1.1513076942083553256
1.1512341960921272932
1.1513174420222107575
1.1515402675997559179
1.1518662388358198445
1.1522367256516987677
1.1523900925156171926
1.1520923851032776053
1.1514332366126358576
1.1507987114790187988
1.150546621392731339
1.1507004330086483268
1.1509720635912945585
1.1510600415897389581
1.150855048788574031
1.150398945714075527
1.1498511743491890424
1.1494184901977140267
1.1491911696818497557
1.1490899701026151547
1.1489893097287913193
1.1489208266416306436
1.1489884610905665152
1.1492056521991125262
1.1494696259143473149
1.149613388129564262
1.149495951225381507
1.1491643432076195097
1.1488867278156771334
1.1489520327773787844
1.1492936856595443729
1.1495448489240032153
1.1494061501732868447
1.1489033841127387348
1.1482941600279479299
1.14780723435515708
1.1474847346740557619
1.1472350030329652171
1.147026576336151571
1.1469390108994708122
1.147043940663232009
1.1472817981315368563
1.1474677374430364285
1.1474608423089602827
1.1472598443800627876
1.1469759041247722386
1.1467572071578870929
1.1467272724609269829
1.1469061908348765488
1.1471602961492439743
1.1472465989569733402
1.1469698907568250945
1.1463452765558239665
1.1456126587537391881
1.145045171795900707
1.1447686310108071694
1.1447179933213011971
1.1447520279995953008
1.1447817415395267204
1.1448088681623793672
1.1448474648501552053
1.1448619852183494761
1.1448522196757651148
1.1449083610928840748
1.1451471804837152213
1.1455781174986134907
1.1460051757535854033
1.1461554312702806335
1.1458990210188695347
1.1453623570428606016
1.144853093421331236
1.1446309306631667901
1.1447430455246787595
1.1450318118069717777
1.1452980717538241429
1.1454430626356149059
1.1454830131419970751
1.1454878386446443184
1.1455191206550936478
1.1455846191750373997
1.1456386926888999511
1.1456097986584028448
1.1454593439332254601
1.145240410573909795
1.1450650086129889882
1.145019782013480647
1.1450990498144306695
1.1451983141878916417
1.1452037616326851133
1.1450827956642040117
1.1449027617889646624
1.1447634653233531576
1.1447160780665583957
1.1447442919530277372
1.1447939733115897187
1.1448465926358279976
1.1449393668412868319
1.1451045057097319901
1.1453357498174498996
1.1455990074082438301
1.1458600427278198275
1.146085772777059919
1.1462212764535446574
1.1462023920501307472
1.1459944402055892709
1.1456383077758727218
1.1452411132987658782
1.1449258660386256725
1.1447719781818410656
1.1447954786290195361
1.1449829801796513884
1.1453328129876010344
1.1458459149069568639
1.1465051058667745654
1.1472272806760794861
1.1478713424794901865
1.148294252376228286
1.1484254696531528417
1.1483014438359055998
1.1480142879173456105
1.147655307244914491
1.1472843918271178332
1.1469401931149081353
1.1466672527676464721
1.1465116200391720636
1.1465050835748900049
1.1466465593957582136
1.1469046323184732827
1.1472312010998255705
1.1475738801634136621
1.1478713163809675102
1.1480519579283194886
1.1480527647617375653
1.1478456490394974843
1.1474605962507862245
1.1469772805908036162
1.1464940407488202201
1.146089881395524035
1.1458066205715355945
1.1456629022754960534
1.1456750413101912667
1.1458659377861786233
1.1462571145386359905
1.1468463541123841143
1.1475993175709069405
1.1484545414442328681
1.1493422920850158153
1.1501982789939555474
1.1509730860805376107
1.1516307250945732044
1.1521481788559435611
1.1546096592152996774
1.1547177351373285603
1.1548584227643359235
1.1549983526998670591
1.1551113276655515794
1.1551894577727792601
1.1552411458621227869
1.1552772974819751628
1.1552944640793525455
1.155271118190756896
1.1551801672562798107
1.1550130077923723704
1.1547936816035360152
1.1545728828980408309
1.154403865455788214
1.154315723164816232
1.1542989859310355261
1.1543123964631132328
1.1543082125269503724
1.1542585697319700522
1.1541654435887249708
1.1540536955952225284
1.1539558443569986057
1.1538993313101713056
1.1538988544311776785
1.1539579812764357847
1.1540709955389907293
1.1542218037351710258
1.1543833308320579079
1.1545215776256778639
1.1546036866680009503
1.1546105435194586875
1.1545453417059157175
1.1544342443395005926
1.1543179914336088032
1.1542380812173977933
1.1542208320480074057
1.1542693377822634826
1.1543647779287866673
1.1544750167507746852
1.1545661448055735132
1.1546173826358752112
1.1546201496988095503
1.1545849421923053413
1.1545394035716396441
1.1545193193648366492
1.1545584858359150271
1.1546742607244411261
1.1548584989988643912
1.1550772333269365699
1.1552801250209119299
1.1554197944405708576
1.1554734657966403422
1.1554531773085179314
1.1553999891640334141
1.1553655500672086465
1.1553912411148106187
1.1554935006596778191
1.1556620590666430992
1.1558703567520565159
1.1560880655186220878
1.1562908566354941353
1.1564654789340518271
1.1566080630526900386
1.1567188404460995166
1.1567984924312251227
1.1568471383988694345
1.1568655893854744576
1.1568582777944922402
1.1568343255248203505
1.1568065936298188578
1.1567902188817058562
1.1568005087144821452
1.1568493436482023551
1.1569405278040532092
1.1570658690666111301
1.157203101273279966
1.15731952190021814
1.1573814925253493868
1.1573656405217063181
1.157266217573190259
1.1570966598062382147
1.1568848298339113878
1.1566641262736685469
1.1564645620394311543
1.1563068597890200362
1.1562000646568026951
1.1561438699340762515
1.156132725173751874
1.1561589390879229988
1.1562153593753889957
1.1562938126444926024
1.1563831525510328557
1.1564688314303437355
1.1565359281624625343
1.1565730507834113272
1.1565781461775352934
1.1565579195702733184
1.156525084130349379
1.156493225623706822
1.1564729120623786773
1.1564683537366129418
1.156477131020260174
1.156495802964372821
1.1565220237371995893
1.1565554258742161142
1.1565959006132258136
1.1566412799217444807
1.1566851503624027142
1.1567171325299463458
1.1567272943700217525
1.1567095534025795267
1.1566648341612681961
1.1566012480120948513
1.1565297862664547512
1.1564608254932526865
1.1564013487239694911
1.1563558631377597319
1.1563287328406679499
1.1563254135541574108
1.1563546578110088792
1.1564297709494675281
1.1565627986807673899
1.1567571126063553866
1.1570017642095316024
1.1572706034897135563
1.1575276866527917097
1.157736786501395887
1.1578719690599015291
1.1579270100970509016
1.157916321242043578
1.1578664982729105493
1.1578056828756402297
1.1577510327283928593
1.1577028711333932076
1.1576472081144959514
1.157564803538843945
1.1574424267397616095
1.1572819079493859018
1.1571021077196963489
1.1569319746596011811
1.1568005743585065836
1.156726913868503015
1.1567151036619762738
1.1567565053139789999
1.1568365259527244593
1.1569431632737490201
1.1570717649747133127
1.1572235856552490763
1.1574003887762298604
1.1575970990327206778
1.1577970146395299977
1.1579723399521943961
1.1580911946561556203
1.1581283062245826265
1.1580742993166461829
1.1579397547427094928
1.1577531230044086907
1.1575516652826671748
1.1573701950637815816
1.157231977811723711
1.1571447731558972549
1.1571022291795749481
1.1570905096476371554
1.1570955541808547462
1.1571079296172082085
1.1571240106265145986
1.1571441828484831937
1.1571691995544752807
1.1571963515389585009
1.1572192858933370019
1.1572306086622889953
1.157225001466237746
1.1572021164063988063
1.1571659078183220704
1.1571214299686547466
1.1570741294846356162
1.157025731439563998
1.1569743508445844427
1.1569172910712444136
1.1568507909074081663
1.1567726674887213179
1.1566828588531934408
1.1565835186077670915
1.1564773106208157127
1.1563680590581844054
1.1562603996631850567
1.1561599158201623094
1.1560733633915445395
1.1560100381545590498
1.1559788597808120514
1.1559859625056665422
1.1560331271928001584
1.1561161568446345349
1.156224569877470687
1.1563430968701122747
1.1564564031666355604
1.1565523200727296782
1.1566260694157985967
1.1566801970459335003
1.1567247747016664583
1.1567730647577985081
1.1568381069289059848
1.1569269034335201152
1.1570370152667670549
1.1571557753037795546
1.1572631130489554607
1.1573371008048061181
1.1573597107777207071
1.1573216245625375098
1.1572253488837696001
1.1570849015896145229
1.1569228485145734986
1.1567646159809550355
1.1566330472391459505
1.1565443759678808444
1.1565067197261607035
1.1565203537150041679
1.1565788383033077658
1.1566713984930339087
1.1567854925375105068
1.1569088676578442865
1.1570317935082667926
1.1571472810483534044
1.1572503918517735855
1.1573370397989077851
1.1574035362849903752
1.157446754843469261
1.157463722823504515
1.1574531385203687961
1.1574155479028331861
1.1573536083825648468
1.1572722866820492893
1.1571778181393015394
1.1570779193031826004
1.1569795677066301298
1.1568869874235863104
1.1568027974482553155
1.156727362803151582
1.1566600433919764779
1.1565994098095708775
1.156543688725977459
1.1564898892356958449
1.156434943833344553
1.1563750376219128491
1.1563049098218103339
1.1562199406827655679
1.1561178449260294254
1.1560009402824056313
1.1558768873979481384
1.1557567615211441492
1.1556539943483579158
1.1555820782822499027
1.1555508313074775995
1.1555636599145315824
1.154367682602801537
1.1551414977349336866
1.1536876921825618414
1.1523142797975638452
1.1509338380220226483
1.1504983858229471672
1.1518745971308517184
1.1526965823546662104
1.152810896346650571
1.1533020300854768259
1.153432634836534465
1.1527091540432692351
1.1524051885104327209
1.1531547442158647243
1.1539684610953335753
1.1539484300112778925
1.153651218307702786
1.1535811407720744093
1.1532495539009468555
1.1528236953616157745
1.1529882940942386416
1.1533743192703589386
1.153095666279486009
1.1525719795868822892
1.1526542315431484997
1.1529709122874822746
1.1527485455633375011
1.1521191362569602745
1.151659754528203905
1.1515518186695297143
1.1517601483843262766
1.1522429008468124678
1.152734272481662714
1.1529528975385747724
1.1528816652485489591
1.1526373462350192334
1.1522708928107070481
1.1518879058788218384
1.1516194503915508918
1.1514701053836122746
1.1514168778746192157
1.1514872998645584445
1.151768874137614862
1.1521845065899922744
1.1524107435474320038
1.1521907241805602329
1.1516248633765682197
1.1510660781929107355
1.1507827478403513943
1.1507609704730867861
1.1508180658100450877
1.1507901869917447346
1.1505984595046891972
1.1502269592069715998
1.1497758547718464062
1.1494219848010889251
1.1492948466094476956
1.1493459045042246913
1.1494317357513275102
1.1494763735596478238
1.1494946394604976803
1.1495406835007613289
1.1496430167832731861
1.1497516110769814279
1.1497151877792390895
1.1494424497269426499
1.1491800502803921624
1.1492070608586781866
1.1495102331723254796
1.1497672438305999165
1.1496437332120108543
1.1490957311332798962
1.1483759506369313197
1.1477917201220328991
1.1474730091483531513
1.1473790590559900249
1.1474168578183330247
1.1475344591125229421
1.1476948122157688559
1.1477955589525323798
1.1477368977107234027
1.1474798044648839568
1.1470975128629690154
1.1467528062319032323
1.146613447710420397
1.1467116564144219648
1.1469769009798194137
1.1472420037303245888
1.1472938086540624969
1.1470033388393974239
1.1464093514428093101
1.145727238016934546
1.1452202248685694475
1.1450142351195877755
1.1450573470585672098
1.1451887772124127451
1.1452705279136579097
1.1452707904938612682
1.1452066319282836471
1.1450917559239441879
1.1449797025439423237
1.144979931941824125
1.1451752213635542077
1.1455326121214131074
1.1458845172055722728
1.1460105304237420132
1.1458073656834391052
1.1453762270024234748
1.1449788674930967414
1.1448469414285391554
1.145023941981004878
1.1453508378045555993
1.1456231701933852207
1.1457373385400988486
1.1457180907933262048
1.1456586592025090887
1.1456442497934693492
1.1456964319793796481
1.1457784213541357676
1.1458145599617024502
1.1457465903689532105
1.1455879504719030937
1.1454090633481144312
1.1452892658475153365
1.1452604307466629496
1.145280432027193207
1.145271286495194607
1.1451922634922409028
1.1450700716106720911
1.1449751825639598035
1.1449583521920985163
1.1450092681330636957
1.1450861394190210429
1.1451697840911116977
1.1452857401235656543
1.1454591399427496157
1.1456770265584514945
1.1458989096834824029
1.1460744605967396748
1.14617749032241667
1.14618624641214506
1.1460860722870829242
1.145884724303442237
1.1456236053547319553
1.1453763334341431346
1.1452092172967505146
1.1451500618173586776
1.1451878233844394739
1.1453036906815974305
1.1455217862899398362
1.1458970419434237886
1.1464549147473543922
1.1471326028092012628
1.1477848733815705362
1.148253366862174385
1.1484594264644385486
1.1484307593421012594
1.1482491015820659452
1.1479935937030016913
1.1476996067671854096
1.1473900281827604797
1.1471073793653556727
1.1469102249588070119
1.1468490330867406879
1.1469402504159451617
1.147163913841891647
1.1474722929063732035
1.147802796726145047
1.1480776277627278148
1.1482145869062512222
1.1481527107126003884
1.1478783417596176708
1.1474393573163659266
1.1469325788237223485
1.1464673897080055465
1.1461208419159121252
1.145918975536468265
1.1458531429535196988
1.1459108749986974818
1.1460963026910020446
1.1464300425611124723
1.1469331633071135901
1.1476050400629007608
1.1484125406715943729
1.1492944856072069282
1.1501771534025082566
1.1509905835852247691
1.1516794479319383271
1.1522131246206703814
1.1543941094479948095
1.1544741046177979804
1.1545689220771075956
1.1546591866325177644
1.1547321711284037615
1.1547878240581188614
1.1548372538226510109
1.1548876036336923612
1.1549266561824544919
1.1549249781384403057
1.154854954108353482
1.1547134981843734103
1.1545327266005525058
1.1543653887230669319
1.154258125390831502
1.1542259527188079016
1.1542444989171203318
1.1542665277859158746
1.1542517304484249951
1.1541873234731980791
1.1540885572209342858
1.1539865704357472609
1.1539093955520287604
1.1538711547319691064
1.1538743767734758183
1.1539181013561123912
1.1540026846093900392
1.1541240557060996608
1.1542674449865646391
1.1544045957755808551
1.1544996548986696805
1.1545248631934452721
1.154472996023379272
1.1543629013848406561
1.1542346586822604948
1.1541356206093924541
1.1541027210907526257
1.1541476760483098118
1.1542549188172051
1.1543902989750018939
1.1545153555594438455
1.1545964299023570021
1.1546198720735010301
1.1545950369171058547
1.1545477564641009049
1.1545185058535134548
1.1545432391309000675
1.1546394222508569172
1.154799151204262575
1.154987339184853079
1.1551544256586570025
1.155257643940106993
1.1552798748658734684
1.1552375497682190186
1.1551739214971663561
1.1551404376019132059
1.1551758479717568751
1.1552934429930397098
1.1554795517405251903
1.1557022713164899486
1.1559259798966716737
1.156124685546984443
1.1562873951445507004
1.1564163849073891832
1.1565201589450588848
1.1566049051409337256
1.1566705107879724501
1.1567117305380583137
1.156722312815746001
1.1567011245347624815
1.1566575191494579133
1.1566125693763142923
1.1565945659323517702
1.15662976470966683
1.1567309842676067877
1.1568882597094360953
1.1570684198052199054
1.1572250441217508676
1.1573142145232242495
1.1573088143610879008
1.1572059276720614296
1.1570253561487371385
1.1568011223085847838
1.1565700174600961336
1.1563619341547566322
1.1561952537651571937
1.1560774656046979292
1.1560087217777281765
1.1559860096436493926
1.1560060203771107545
1.1560654554900573476
1.1561587237099337777
1.1562744966332008101
1.1563940814214910269
1.1564965035458196763
1.1565629186287438301
1.1565843089998428805
1.1565644040571556594
1.1565150863852142749
1.1564525171132440384
1.1563911304960288184
1.1563405263012953572
1.1563055605376770796
1.1562872220648101607
1.1562879119475577561
1.1563088373610710402
1.1563505667436826396
1.1564091580065516407
1.1564759567578366539
1.1565367686316929685
1.1565768827342197689
1.1565856204843096844
1.1565613781942107874
1.1565112427325499045
1.1564478842418393079
1.156385247297780472
1.1563340326249293977
1.1563022819936910057
1.1562944247173672085
1.1563149569342210388
1.1563705078345702937
1.1564690405796325123
1.1566153879525431503
1.1568070668205179263
1.1570313451717173514
1.1572648502452309582
1.1574778995301389095
1.1576431689552693083
1.1577438397420691807
1.1577795239289487839
1.1577659602379573034
1.157727151350100403
1.1576849878693173945
1.1576503927426189389
1.1576191977527245935
1.1575759194391492812
1.157502144357019036
1.1573870025510812898
1.1572348403399084216
1.1570652026734122853
1.1569068272333191683
1.1567862439919434081
1.1567196574089166905
1.1567086999437410366
1.1567440393079579941
1.156812819624667199
1.1569061241416522812
1.1570225797706279458
1.1571660909302474707
1.1573389411475267785
1.1575346920141504903
1.1577338012955484814
1.157907008798847226
1.1580225385393789761
1.1580569119919272847
1.1580035273737092627
1.1578760217138501787
1.1577046522714273813
1.1575272130244997904
1.157376984575955392
1.1572740537653349868
1.1572216090007452216
1.1572085064016084388
1.1572161543959986751
1.1572270867114526904
1.1572305591743601294
1.157224443296770211
1.1572132152179768205
1.157203045349695536
1.157197668792434353
1.1571963315921098836
1.1571938538878594471
1.1571847069506882022
1.1571655085466565627
1.1571346829566124814
1.1570938410203273072
1.1570442234979103624
1.1569885072569581208
1.1569275086110906159
1.1568614100515057785
1.1567903676157937909
1.1567151652747895696
1.1566367920416871229
1.156555640501407245
1.1564720901136533726
1.1563856928878815111
1.1562965084156127116
1.1562070065873180091
1.1561227788596675214
1.1560519812986695953
1.1560044838068159745
1.1559885793117448127
1.156007421134065849
1.1560585220106629478
1.1561330871768102924
1.156218356850373441
1.1563007644310756561
1.1563709385509046701
1.1564258914190925776
1.1564707034705350441
1.1565159726017739672
1.1565749082518654856
1.1566584735590992317
1.1567710363761778414
1.1569071767608130052
1.1570511806902576968
1.1571804586726983644
1.1572712381584731034
1.157304621116018728
1.1572720317810816226
1.1571769295851292991
1.1570348794964062655
1.1568687958657679626
1.1567049046233284226
1.1565666017997651149
1.1564708848464335667
1.1564260840456301871
1.1564332394367153878
1.1564873126077734877
1.1565788103030389955
1.1566965299544962331
1.1568291329620077335
1.1569665009717744475
1.1571002799747132084
1.157223871578610952
1.1573308222804108425
1.1574156158774520087
1.1574735387839150125
1.15750260004099359
1.1575026343547440977
1.1574767513954136167
1.1574295704309185417
1.1573666713736694422
1.1572940115264940264
1.1572166173623565921
1.157138773497019324
1.1570632843513659616
1.1569913233618549508
1.1569244491716028644
1.1568635413672536671
1.1568086604145377816
1.1567598595616306323
1.1567164559457208117
1.1566761097579467688
1.1566349892108287456
1.1565873241080077971
1.1565268596103246423
1.1564491643348704386
1.1563522513529387314
1.1562397638044847881
1.1561207002768960628
1.1560069940091637353
1.1559131795434967049
1.155852611899047977
1.1558331640648329408
1.1558561400861295798
1.153049782806064405
1.1518745993026495711
1.1530902331765953139
1.1530229576545423242
1.1513289512940729775
1.1508625275307162728
1.1516791929632992364
1.1522831896157530451