/*--------------------------------*- C++ -*----------------------------------*\
  =========                 |
  \\      /  F ield         | OpenFOAM: The Open Source CFD Toolbox
   \\    /   O peration     | Website:  https://openfoam.org
    \\  /    A nd           | Version:  12
     \\/     M anipulation  |
\*---------------------------------------------------------------------------*/
FoamFile
{
    format      ascii;
    class       volScalarField;
    location    "0.0069";
    object      T;
}
// * * * * * * * * * * * * * * * * * * * * * * * * * * * * * * * * * * * * * //

dimensions      [0 0 0 1 0 0 0];

internalField   nonuniform List<scalar> 
75962
(
299.73320074601002716
299.60904453791772539
299.91045166323658577
299.98655016628782732
300.12509540696902377
300.20848882113062928
300.152994691661263
300.01622274167846172
299.88571651947529517
299.89605487713924958
300.03720071611854792
300.19901069683788819
300.35282838506503822
300.39472064438240295
300.25332135547995449
300.04586573357522639
299.96102046794538865
300.04249648566644737
300.20910684720200834
300.384088012692132
300.52134754660232829
300.54229345075117408
300.42900541418907778
300.27644212572187143
300.17884510124412145
300.12260736339464984
300.08096273225879713
300.08929931597367613
300.1522527428191438
300.24623873142502362
300.35322429983619941
300.44897364425889918
300.48990629130844354
300.4650571521223128
300.43360593103153633
300.45788257608847971
300.53001781672622883
300.59074050470826478
300.5920289934400671
300.52735755813336027
300.42587377352055
300.33556863791358182
300.2952180674454894
300.32233102102753719
300.40425953968400563
300.5017868900662279
300.57711166364896371
300.61875775434151592
300.64176127740273614
300.66195516365542062
300.67613416890861799
300.68452867965163477
300.70893510026360218
300.76824127350386107
300.85455448770659359
300.94096205583042547
300.98921837594491535
300.96239051874653114
300.85459743636096164
300.7062652080497287
300.59126403617864298
300.56734823394037903
300.63807733654965659
300.75823037900516965
300.86605462916685383
300.93143700833547882
300.95538650967330341
300.96241040756808616
300.97237519922583715
300.99266693492154445
301.0325064931058705
301.10774359663696487
301.22350211006215659
301.35427429722614079
301.44809081226094349
301.45571151994067804
301.36860095789489833
301.22588644166302174
301.08858626705563211
301.00624017407881183
300.99946995744210199
301.05703655023592091
301.14126918015386991
301.20277016625249189
301.20473766990340891
301.14893027435607564
301.07481526979387354
301.02966950549188141
301.04155798318583948
301.10921073672869852
301.20630869869978596
301.29287148769765281
301.32751884118107455
301.28613134473800983
301.17454245992939832
301.03421240330607134
300.92462855248368214
300.89009013689837957
300.93109657322872863
301.00356842415027359
301.04956910069557807
301.03801447190556928
300.98229065364125745
300.92231047146270839
300.89130827998531004
300.89935982044283946
300.93835358911326239
300.99681022933339136
301.06526769984992598
301.13231137573620799
301.1829724781061941
301.20483601352145797
301.19625174080823626
301.16831433507849169
301.13672991304127891
301.11192400282806148
301.09437190124509698
301.07630394371574312
301.04792694080896354
301.0052982120863021
300.95608992702267415
300.91855956096964064
300.91225508875862715
300.94467395269975896
301.00439896354214397
301.06738087978311569
301.1126992445708197
301.13389463503364141
301.13932482931858203
301.1421941081111413
301.15018560328059039
301.16310095595900975
301.17442614375607945
301.17760530105493899
301.16712526395866689
301.13769760845246992
301.08623970396695313
301.01647406194763334
300.94333842727957062
300.88879502264802568
300.87153827699705744
300.89967367704173284
300.96949569331309249
301.07077602492501001
301.19013867051359057
301.31249873495443126
301.4217906203694497
301.5023699607363028
301.54237313344287941
301.53561669136473711
301.48254691673923844
301.39112190329075247
301.27555349035776544
301.15497670746168524
301.05101350892505252
300.9843662786959726
300.97052975524258045
301.01490077670661094
301.10691653681749358
301.22348405202058075
301.33558364208568037
301.41707271398291823
301.45219841471856626
301.43760678002507802
301.38122340433187674
301.29940249131942664
301.21411948717928908
301.14791381413090221
301.11842045673284929
301.1334527829488934
301.18983357895427844
301.27601797093666391
301.3772077024281657
301.47961416170528537
301.57084705821222315
301.63946049559399398
301.6753134600525641
301.67110594075643348
301.62448546885536871
301.53905563537870194
301.42240759881389067
301.28274458214599463
301.12637972631068806
300.95746774886856656
300.77926515589473411
300.59535776729779855
300.41051540590751756
300.22990970422767987
299.40000957264982162
299.42069396317100427
299.44214006662423344
299.46064159658709514
299.47497263895542119
299.48587444131175062
299.49438337987055547
299.50007805310519871
299.50054792941790538
299.49283204270011538
299.47542829141013954
299.45016182363013968
299.42236996490385081
299.39861772798099082
299.38370559936248583
299.37851546905716305
299.37980791411217751
299.38255305953236984
299.3827639634068305
299.37960415490061905
299.37514827589569677
299.37304133860237698
299.37666552759935712
299.38809021441585401
299.40763553068956071
299.43377331965245958
299.46343340742134842
299.49265531372964233
299.51737733005035125
299.53457794335020026
299.54324679603297454
299.5446810378998066
299.54198444264835643
299.5388756924860445
299.53843943661257754
299.54222591130576347
299.55000399123531452
299.56001997263001613
299.56996295337171432
299.57755798802133995
299.58173318003946406
299.58214945077008906
299.5798355597193563
299.57706781105974869
299.57678318076364121
299.58209383188591346
299.59488662482436894
299.61469872190610886
299.63853591219333339
299.66168117216682276
299.67944140999071578
299.68904067885728182
299.6908507096742369
299.68821305940673483
299.68585099338679356
299.68784015498852114
299.69623178320784973
299.71073564125509847
299.72938246356693526
299.74985868950994927
299.77041202893906302
299.78989015903727022
299.80730925395965869
299.821497303313663
299.83121308317419107
299.83570447806448556
299.83531332160299598
299.83157687158433191
299.82679764478132256
299.82329875516717266
299.82267268321186293
299.82546536462911035
299.83139345990986158
299.83966627801368077
299.84914130639003815
299.85830273021048242
299.86526579787175706
299.86805259194301243
299.86508108971099773
299.85574983539720506
299.84078117664637375
299.8220735402713899
299.80248236120718275
299.78482225905094083
299.77118671702214669
299.76248293304428216
299.75842364866684875
299.75808112946009487
299.76044823720081922
299.76464361466025821
299.7699823521605822
299.77568162462398504
299.78081852648853101
299.78444336393624781
299.78598295233263116
299.78547188674309609
299.7835998043523773
299.78164502128191771
299.78099985770410285
299.7825527793890501
299.78628681812421064
299.79154555470762489
299.79748645993925038
299.80332818981196397
299.80852861473340454
299.81283992632705804
299.81600935647600181
299.81768171571553694
299.81747559819137905
299.81513902438757668
299.81063319288210778
299.80435258664505227
299.79711470221275249
299.78973406170979388
299.7827823024697409
299.77655443884219721
299.77107694906936786
299.76649697928706928
299.76342448982381939
299.76310017847509926
299.76729082210528077
299.77795576172553638
299.79627098512497696
299.82178093440586508
299.851952165155069
299.88264410095450785
299.90910716047790174
299.92754894841448277
299.93630953373110515
299.93629083228785248
299.93041628408036559
299.92212411465533251
299.91409790912865674
299.90718246621133858
299.90049039806763176
299.89212981025895033
299.8804567038344544
299.86516135384482595
299.8476082667128253
299.83044076815014023
299.81658585868581213
299.80823440299576532
299.80619574329620036
299.80991556569097156
299.81808317345041814
299.82931338197136029
299.84275921883551064
299.85817925979279153
299.87561277802149107
299.89464850891880587
299.91390237017816389
299.93092525526031977
299.94275285790143926
299.94683975320890568
299.94194306536650174
299.92864681086467726
299.90930243253023946
299.8873397066639086
299.86627699351697629
299.84876658322610865
299.83611914685866395
299.8283284318891333
299.82459459756273645
299.82391531314311806
299.82548267434901845
299.82883359615573227
299.83364628982894828
299.83940649803702172
299.84518076981726153
299.84983649569585396
299.85239780853407865
299.8523532491728929
299.84992410341868663
299.84593890281541917
299.84138747379950019
299.83706448463681227
299.83320311871977992
299.82942675947043654
299.82495849566691959
299.81895931059625582
299.81091091159203188
299.8007653952741407
299.78895645005201231
299.77631487717923164
299.76377673106696875
299.75219830364244444
299.74247147781801459
299.73539449868354723
299.73162170883955469
299.73162516182532045
299.73552080495642258
299.74310793348274728
299.75378840955488613
299.76651756062085497
299.77999747439992007
299.79284664477722799
299.80396488628633733
299.81271851881501789
299.81923144181263297
299.82420047440581357
299.82880647180070355
299.83423829333133881
299.84127915280345178
299.84995294253565135
299.85939831023841862
299.86807171432025143
299.87413297550716607
299.8758668022366578
299.87225148708449751
299.86332151671763313
299.8502267012661946
299.83494940980023102
299.81982157085337803
299.80701994731288096
299.79817105754676732
299.79418525480372182
299.79518820832572601
299.80056019286769242
299.80916954854507139
299.81963779416332727
299.83069101316641536
299.84133258931825594
299.85094544472229927
299.85915039744639898
299.86571927924086367
299.87044609124774297
299.87304522444088661
299.87315886371283113
299.87049460581619087
299.86491748495279808
299.85662560885958783
299.8461840745114273
299.83446417847750354
299.82246039241795188
299.8109449448096484
299.80040966351259613
299.79105045776714178
299.78276899132265498
299.77531312607362679
299.76835861043230125
299.76156237001504223
299.75460234593646192
299.7471686188726494
299.73884928258161153
299.72927364202951139
299.71822469981151471
299.70579755044161629
299.69252807685836615
299.67932114512188946
299.66740501127389962
299.65816252731553959
299.65280782520909497
299.65208553182731066
299.65605498523854067
299.9411668294745823
300.01072468073158461
300.11364032131245949
300.13531582382802299
300.11902016356089007
299.99458465057955436
299.85958735430972411
299.81885366142728344
299.80534711524336444
299.9084381723680508
300.11726919149270998
300.30940976072304238
300.43392660499597469
300.44980689190475687
300.3073080644867332
300.09547422986156562
300.00263661091514678
300.08655772694459074
300.23654398782463204
300.39126633612966089
300.51999255580886938
300.54077314392901599
300.4189471031891685
300.25847784803966078
300.16982403373748411
300.13546664519498108
300.10215150567955789
300.09474643335613564
300.14203566164576387
300.23477432553312383
300.35512509349990751
300.46995069534017375
300.52322557746703069
300.50086365636104802
300.46654463222682807
300.48757441163240856
300.55593458890336933
300.61574234250036852
300.62177132854668571
300.55629551813865419
300.44138780684119183
300.33069784965709914
300.28010992166804272
300.32064655008099407
300.42642989972779333
300.54114478533801957
300.62457530168063613
300.67065168928036201
300.69110741368155004
300.69281837775434951
300.67793448558040836
300.66180576924381285
300.67355004437166599
300.73073815305053813
300.82627585530025272
300.93062778113250033
300.99792257059084477
300.98649514152060647
300.88763884637938872
300.74626697402925402
300.63451151484906632
300.60708251270000346
300.67499475787866459
300.80266805176285061
300.92733666649314728
301.00074013313479782
301.01786118642485235
301.01144240461616164
301.00852436153405733
301.01855004273312488
301.0493373982516232
301.11604237087937008
301.22531488076617734
301.35540159720284237
301.45710186875953696
301.48002076412666383
301.40915593187105515
301.27627861538775278
301.1396751550394697
301.05169324780547413
301.03475985024954298
301.08033254641111398
301.15558384181127849
301.2159793731942159
301.22590842506173203
301.18001650680776038
301.10652636671454729
301.05008566718265683
301.04546550734710308
301.09963784056111535
301.19038914845742738
301.27731263931036665
301.31578954866171216
301.27739025722382848
301.16669210910936272
301.02632614870498173
300.91881115100665056
300.89244077241761488
300.94875327464598058
301.03848921148602358
301.09811428321728499
301.09235480949007524
301.0317252682191338
300.95705554400291248
300.90594741528138911
300.8956296693548893
300.92521568618269612
300.98458307227292607
301.06090507165885128
301.13688827015573679
301.19242345239450742
301.21227413822691688
301.1969664593948437
301.16330746728056056
301.13208080815184076
301.11453831557776084
301.10849866371859207
301.10239018279247603
301.08434156897925504
301.04948015829950236
301.00433602181419701
300.96714736201244023
300.95772873365223177
300.98485797167990086
301.03953154452671015
301.09822484566950607
301.13765579091631253
301.14858954465870511
301.13942990171733527
301.12735625670001127
301.1256031884844333
301.13691053167713108
301.15377857610593537
301.16651949174365654
301.16840537632646146
301.15381101304166123
301.11878911208111731
301.06513687094803799
301.00401728144117897
300.9535451773771797
300.93037534061329552
300.94350631664912044
300.99261112970299337
301.07160183910025353
301.17135345324288664
301.28071057459493431
301.38557401815103276
301.46953959926213429
301.51783770880774682
301.52221953700228596
301.48219700143096134
301.40583730826750752
301.30621378332773475
301.19962413150591374
301.10496982857040393
301.04270084250032369
301.0307565926448774
301.07529977058146642
301.16597454444638515
301.27798904620732401
301.38102476052540624
301.45018657121579508
301.47192415885416494
301.44562992612202379
301.38146870512940723
301.29740258859362712
301.21545627300042725
301.15694580948320436
301.13661370435062281
301.15886669422394561
301.21853801258748717
301.30459647372157406
301.40495976262053546
301.50855088948298999
301.60481146853567225
301.68209598666504689
301.72773470705004684
301.7311127418482215
301.68705382231667045
301.59729842294575519
301.46933505052004421
301.31289123086037307
301.13735468846249432
300.95046999910067598
300.75870882840774811
300.56754539021665096
300.38173966338791843
300.20488880495327066
300.03938387853440872
299.36480316466031582
299.37695171284565276
299.3936348320382308
299.41153062433033938
299.42775835446065003
299.44109864533027121
299.45192089056837403
299.46083677834610626
299.46700271152633377
299.46779265355121424
299.46014992028040069
299.44314871353736862
299.41953782303289699
299.39509806962172433
299.37603785703487347
299.36608118197369777
299.36481892472647814
299.36834332489820554
299.37186400240989315
299.37250860581394818
299.37043086106842793
299.36809812264908714
299.36869447479347173
299.37479284203686802
299.38755630795344587
299.40693364643311725
299.43191344330853099
299.46045229367132379
299.48941052230895821
299.51498646017415695
299.53355591580117334
299.54299852142838745
299.54360220434762141
299.53814590861531997
299.53101073580103275
299.52671961603522277
299.52824149405512344
299.53609822282408004
299.54846506997347433
299.56205640137233104
299.57335043952042497
299.58014970900774188
299.5815118242158519
299.5784868587632559
299.5739862541819889
299.57184687900138442
299.57576641696039133
299.58773991492046207
299.60703998458564001
299.63014727783900071
299.65173935866226884
299.66673318132183113
299.67261113993748722
299.67054536836184297
299.66481818954565597
299.66088693596924486
299.6631763816880607
299.67351289814439497
299.69090812328130369
299.7126391885309431
299.73556213862946151
299.75711689833940454
299.77585507746687199
299.79127679550100538
299.80329909611481298
299.81189885671153661
299.81703551304877919
299.81878724229244426
299.81765277548151971
299.81465126223076822
299.81119600540739611
299.80891788219707905
299.80944332801715291
299.81403645112726508
299.82313122151657581
299.83593221869870149
299.85018518840183788
299.86251425422000239
299.86938084445489494
299.86825152812195938
299.85839628567788395
299.84109647316449809
299.81919171034888905
299.79617068428990478
299.77522651892786598
299.75860643904667313
299.74732537864110782
299.74138587709410331
299.74020625494875958
299.74296418417128507
299.74889440267457985
299.75713384986357823
299.76652521003535412
299.77554462243404032
299.78262183583700562
299.78651944107690497
299.78697803451734671
299.7846873020756675
299.78098683271622349
299.77733582506846233
299.77490735454551896
299.7741879093819648
299.77494282243998214
299.7768116067891242
299.77952222314576147
299.78301861354276525
299.78726308450012539
299.79202364091577238
299.79661681035793208
299.79994835878858339
299.80096209413676434
299.79902583460119558
299.79424013430445939
299.78748036867682458
299.7799322191683018
299.77271029077320463
299.76656910395206523
299.76197275340877013
299.75935167969271333
299.75923965357014822
299.76249896960536034
299.77048427442372258
299.78445613212204535
299.80479862698751958
299.8304014453078139
299.85856485259120063
299.88554440694457526
299.90752097879789062
299.92172697741892762
299.92744999083828361
299.9261573773083569
299.92065521126357908
299.91396943615814052
299.90799955787935005
299.90286732709120088
299.89714292092662618
299.88877889215154937
299.87629990336478158
299.85979851877522151
299.8411751991412757
299.8234418760549147
299.80967407564003224
299.80191794655502235
299.80064528738495255
299.80495616494431488
299.8132825215751609
299.82430955655689786
299.83751547112552771
299.85305072542541893
299.87117735450016198
299.89147237200012341
299.91229444782197788
299.93078620590398486
299.94358533119429921
299.94794075355463292
299.94272756927836099
299.92891221336861918
299.90938628345344341
299.88804436646330487
299.86859807522756682
299.85358565838527056
299.84392155623066856
299.83901030020541612
299.83743464475827523
299.83772513691155837
299.83888340332572398
299.8405269754642859
299.84270332875257736
299.84550304808698229
299.84863820411646884
299.85141807502964184
299.85301828040962846
299.85281939855121891
299.85073071157421509
299.84713009350667789
299.8425474502936936
299.8375884906975557
299.83247671735875883
299.8270681723619191
299.82111934575635814
299.81424841766005329
299.80621073139951704
299.79697529848272097
299.78673812573089208
299.77575802454083487
299.76442571498523648
299.75321352718503931
299.74270183413273116
299.73359109328498562
299.72683403480550623
299.72334930650856677
299.72377964331991507
299.72833781427840449
299.7366376032684343
299.74766810929651228
299.75989596898506306
299.7717609466009776
299.78197992344604472
299.79000670745739399
299.79602900130521448
299.80102291967540395
299.80631656180651134
299.8132555138644193
299.8225975485505046
299.83414657014776594
299.84664011359228653
299.85802228573095363
299.86600094729323018
299.86864918374305944
299.86492229645170937
299.85500347280981259
299.84029888036366174
299.82314455353571248
299.80621913658342237
299.79196124569301674
299.7821396451136593
299.77768137672927651
299.7786812054050074
299.78450845699808269
299.79403907563420262
299.80594125965785679
299.81889864632563558
299.83185486795127872
299.84404372202527611
299.85492728595323797
299.86406784505300038
299.87107617004801341
299.87562269727084185
299.87739950824362722
299.87627101674706864
299.87230637554313262
299.86579091551999454
299.85725954759300294
299.84737314921005691
299.83693232678558616
299.82664545441303972
299.81692138371471401
299.80800127350181583
299.7999135577973675
299.79259354435487239
299.78592047228232786
299.77976460482040011
299.77387979208316438
299.76799959243743388
299.76176449659516265
299.75463480100427205
299.74611222781942388
299.73591455088416069
299.72420235098195462
299.71168329331379709
299.69942796701678844
299.68877879700698941
299.68112417751348175
299.67751419007618097
299.67835940200939149
300.01013496653337143
300.13536623506439582
300.12708051095393103
300.10862598983959515
300.05122224116655616
300.01468873765168155
300.05172812037147878
299.94497245309338496
299.82278293870115249
299.95157761202170832
300.24127120779479583
300.44659829534765549
300.50470137287703665
300.44512952449673548
300.28827402168280969
300.10538417642305831
300.0477434229817959
300.15707025934381136
300.30313135270000657
300.41853560636042175
300.52483016769929236
300.56993215304271416
300.47165814328400302
300.30678002067452326
300.21110863622379838
300.18204099446177224
300.15127908592029371
300.13051888257035671
300.17022268101385407
300.26666005963511452
300.38053748014306166
300.4753862374548703
300.51819905249817566
300.51043158012930689
300.50021947521241827
300.53216518459760209
300.59853300780338259
300.65717380436819894
300.66344798486301215
300.59156289417040853
300.46185211232335632
300.33557940867035541
300.28514135554468112
300.34141379875205757
300.46899837670520128
300.60288442690796273
300.69813702224570306
300.74342105861165919
300.74421746033374347
300.70943993017726825
300.65842009249013245
300.62459666515763956
300.64009435870832476
300.71313422166588225
300.82592991331137
300.94155744137123065
301.01596326235903689
301.01153167318420856
300.92246600158432557
300.78986208605829233
300.68233873836686598
300.65868199827156104
300.73625928998973222
300.88028704150235626
301.01838815139558392
301.08555415813737
301.08077746991511958
301.04654254445080142
301.02541392385796826
301.03587653723633366
301.07881236570750616
301.15350341566283987
301.25718296379818639
301.37150815989627972
301.45771800236610716
301.4764566448859
301.41425489837592977
301.29648357800772374
301.17484167352756685
301.09698672159288435
301.08800278524830674
301.13864384465563262
301.21194925269674059
301.26233787049659441
301.25899426776624068
301.19724140457987005
301.10835063553651025
301.04264339557818175
301.03933470499384839
301.10560259352473622
301.21106111897216806
301.30444319482978699
301.33865119779329689
301.29067847206408715
301.17534778843776166
301.04084497239409757
300.94750907262039163
300.93722882720965117
301.00461939528412358
301.09778302038682796
301.15463857921696444
301.14265806277302318
301.07249889054924097
300.98432160611412201
300.92090648068761993
300.90537970270770529
300.93790728891036679
301.0026773475238997
301.07969014048700274
301.14924745920501437
301.1945723253074334
301.20539319460129946
301.18555798780454325
301.15240924900109576
301.12574952341628887
301.11548971263420071
301.11801750297735225
301.12070816695148778
301.11242266884244145
301.0894644182136517
301.05825945281020495
301.03343128010249075
301.02920276749807726
301.05118194113384789
301.09205166861869429
301.13413465018658144
301.15911998813999162
301.15958957286278519
301.14259047795167135
301.12434510496461826
301.11879416942201715
301.12887503013132573
301.14775897511748326
301.16573179410664807
301.17588259214494428
301.17329686759575225
301.15402815331685815
301.11784099368514944
301.0699500405127651
301.0230261711451476
300.99138792323026337
300.98650821784491427
301.01425187248696602
301.07415064699529239
301.16076605161708812
301.26306668196730243
301.36495393447791002
301.44790393584452204
301.49570267881387053
301.50125809673687627
301.46754879610682565
301.40390685879532384
301.32160301100617517
301.23315017077419498
301.15385633067990057
301.10269878631760321
301.09685776576412763
301.14201178403743597
301.22753483366551563
301.32796062312957019
301.4143367117584944
301.46520853584382849
301.47145135917639891
301.43587919068329484
301.37010582244442958
301.29172653831909656
301.22098391930001071
301.17667095288658174
301.17047643630462517
301.20385668134650814
301.26928811610309822
301.35441117674969291
301.44699609395780726
301.53760450892031031
301.61901531501445106
301.68338825635743206
301.72102591143914196
301.72218232818471506
301.68023919240681607
301.59381413028910401
301.46679764739593566
301.30675172468988876
301.12258061982544177
300.92301010790828286
300.71617224603102159
300.50971582134440041
300.31061457110564561
300.12446125189467239
299.95529239945216204
299.33916704049994451
299.34955597945906902
299.3629558925888432
299.37716219685171382
299.39042534676127616
299.4021824475268545
299.41302100328988445
299.42317526456548649
299.43098241532561588
299.43310966426543018
299.42659182944504437
299.41125024530498422
299.39085688622878934
299.37157954843593188
299.35907940118551096
299.35567829583641242
299.35940527287777968
299.36562034383837272
299.37015257319399097
299.37153704847361269
299.37113109082145002
299.37189843698394043
299.37642478653424405
299.38577200559086577
299.39972919976003141
299.41772449830187952
299.43938379797458538
299.46398706484711738
299.48982738424729177
299.51386567153360829
299.53231228630710348
299.54224315564766812
299.5429161637823654
299.53635397972664123
299.52685660480921115
299.51953645915153857
299.51845214539997642
299.52501589512843339
299.53774059039642452
299.55317195451652879
299.56734282627269295
299.57675384471195912
299.57994230108511147
299.57787582974748375
299.57324037833842567
299.57030536212016614
299.57293900128360065
299.58307582531404023
299.59997173194955167
299.6199821729770747
299.63786055721891444
299.64902275572114831
299.6515667848227622
299.64714494833970093
299.64028066862726973
299.63642074204534538
299.63971998557406096
299.6516774999066115
299.67096048211016068
299.69430178789525598
299.71799754777197222
299.7392986111369737
299.75697345351062495
299.77114078011453557
299.7825674076432847
299.79180495284907693
299.79878076673094256
299.80293328026090194
299.80364131607058198
299.80084536148791585
299.79558600163858273
299.79012126611939948
299.78746121451888484
299.790418351954429
299.8004320069957771
299.81657526075042597
299.83546346252450121
299.85225166157113108
299.86226295022311206
299.86250152471285446
299.85247398431687316
299.83409586097309329
299.81085223035449872
299.78661681141534245
299.76461817684258904
299.74690782642869635
299.73437452786862423
299.72708617388457242
299.7247233142920777
299.72689815713994221
299.73321613935189589
299.74305655968532847
299.75521942416384036
299.76773992759484599
299.77841173811606268
299.78524826534686554
299.78727797506496699
299.78489591232738576
299.77938204607005446
299.77246911800023099
299.76571143872257608
299.76016636853103137
299.75635425967027459
299.75437537440217284
299.75446260946847588
299.75671818023977266
299.761180417845992
299.76740634101463456
299.77447640033250309
299.78087808187933661
299.78505584165992559
299.78588820385152758
299.78323233704782069
299.77787237370654339
299.77118876300579586
299.76468612271986558
299.75950145967414073
299.75646686851030154
299.75599977247833294
299.75849716601311457
299.7645816461977688
299.77503717873855749
299.79036663036004029
299.81033980007430273
299.83367573171983622
299.85798291663132886
299.88019212716397988
299.89745330232238985
299.90798207771433681
299.91170170530796213
299.91024107696313195
299.90611863070029131
299.90166825856323385
299.89808244571696605
299.8949546317497834
299.89065879392791203
299.88321566392227169
299.87141571872706436
299.85563968732128615
299.83789915418725514
299.82121224243786628
299.80840685793219791
299.80123817972753386
299.79991696180934468
299.80346062133372698
299.81048741967157412
299.82001582509337823
299.83188108221122548
299.84652740979129248
299.86427656846097989
299.88456422125034351
299.90543104417105269
299.92384365195300688
299.9364268100508184
299.94060692206596741
299.93554495807836702
299.9225308426894685
299.90464687282775458
299.8858434851073298
299.86967003701715839
299.8583355057510289
299.85227981779428319
299.85041460449775741
299.85083277723055062
299.85171258999690735
299.85192234100816222
299.85122794649055322
299.85009789828541216
299.84918436219857085
299.84887453006729174
299.8490657422440222
299.84917600336416399
299.84857762684936233
299.84686028100901467
299.84382081874576897
299.83963463956882833
299.83444159654169425
299.82857712388550908
299.82218055313126115
299.81531586370476816
299.80800169164194813
299.80030359161651177
299.79228999716389126
299.78395877071977793
299.77531976271842495
299.76630550334886038
299.75692273575180025
299.74743707384357094
299.73844895755422613
299.73081985176679609
299.72558410262610096
299.72361293808006621
299.72525239900403449
299.73027761880121034
299.73781362308034204
299.74658780557507498
299.75520959639004559
299.76270510375178446
299.7687251296029558
299.77374794621982801
299.77882092137082282
299.78528193642358701
299.79425722330319104
299.80621218865491073
299.82060935658063272
299.8358386288509223
299.84955695037996293
299.85927639241123188
299.86298594395310602
299.85973995859689012
299.84985056466979358
299.8349120964507506
299.81731586994965255
299.79982719245606404
299.78493916700222144
299.77447762290790934
299.76935828913627802
299.76971901607038262
299.77505545483279548
299.78438011223909143
299.79651830561164161
299.81028442372371501
299.82462190883848052
299.83865917034466975
299.85170315269505181
299.86306810003350165
299.87215399324810505
299.8784366428882322
299.88167334881012493
299.88181892381339821
299.87918009582483592
299.87424423012066654
299.86760583181222728
299.85991010532325163
299.85169776227667171
299.8434172248445293
299.83535452156564816
299.82761220336351471
299.82034446683633178
299.81364625307315919
299.80755426194036772
299.80211324293657071
299.79731560884124519
299.79297968269713692
299.78874763570439654
299.78403033812122658
299.77814462805446283
299.77058155688695251
299.76106568321785062
299.74988249262685258
299.73788801001114734
299.72625189662477396
299.71644789269458897
299.7098721321241328
299.70739218596855835
299.70920940130093868
299.96461734433569291
299.77491626136759351
300.0503981686864563
300.22079722627358933
300.1472715010382899
300.08177823291043751
300.02351877971665317
299.88218322440280872