#              y        d.bubbles                p       alpha.air1       alpha.air2       alpha.air3    alpha.bubbles
           0.015    0.00305600394       107393.491   4.18225791e-37   1.28631204e-45   1.78519723e-47            3e-06
           0.025    0.00305600394       107292.742   5.01505811e-29   4.38588374e-38   9.75863349e-42            3e-06
           0.035    0.00305600394       107191.992   2.27177747e-16   2.07760154e-25   4.65642926e-29            3e-06
           0.045    0.00300031905       107108.393      0.341039205   3.11889518e-10   6.99023102e-14      0.341041205
           0.055    0.00300095912       107040.839      0.319000057   3.15038208e-08   1.35403999e-13      0.319002057
           0.065    0.00300160402       106972.295      0.321128214   1.84198307e-07   2.37579848e-13      0.321130214
           0.075    0.00300224908       106903.837      0.320668916   6.40745863e-07   4.86336208e-13      0.320670916
           0.085    0.00300289466       106835.364      0.320836611   1.26854139e-06    9.9668843e-13      0.320838879
           0.095    0.00300354069       106766.909      0.321027884   2.85266528e-06   3.13845745e-12      0.321031737
           0.105    0.00300418704       106698.475      0.321240453   5.91323867e-06   1.02959028e-11      0.321247366
           0.115     0.0030048337       106630.063       0.32145598   1.12167204e-05   3.11016423e-11      0.321468197
           0.125    0.00300548064       106561.673      0.321670607   1.97789918e-05   8.51111755e-11      0.321691386
           0.135    0.00300612783       106493.305       0.32188157   3.28737645e-05   2.12759905e-10      0.321915444
           0.145    0.00300677526        106424.96      0.322086955   5.20415229e-05   4.91708031e-10      0.322139997
           0.155     0.0030074229       106356.638      0.322284814   7.90948983e-05   1.06225249e-09      0.322364909
           0.165    0.00300807074       106288.339       0.32247303   0.000116119145   2.16505719e-09      0.322590149
           0.175    0.00300871876       106220.062      0.322649243   0.000165467455   4.19503465e-09       0.32281571
           0.185    0.00300936693       106151.808      0.322810846   0.000229751248   7.77575791e-09      0.323041597
           0.195    0.00301001524       106083.577      0.322955292   0.000311826912   1.38592965e-08      0.323268119
           0.205    0.00301066369       106015.368      0.323078005   0.000414771602   2.38564627e-08      0.323493777
           0.215    0.00301131224       105947.183      0.323177821   0.000541892313   3.98051473e-08      0.323720714
           0.225    0.00301196088       105879.022      0.323292862   0.000696640192   6.45754855e-08      0.323990502
           0.235    0.00301260963       105810.885       0.32330588   0.000882596163    1.0212555e-07      0.324189476
           0.245     0.0030132585       105742.769      0.323297199    0.00110354416   1.57821535e-07      0.324401744
           0.255    0.00301390748       105674.674      0.323263299    0.00136334475   2.38799995e-07      0.324627644
           0.265    0.00301455653       105606.603      0.323188819     0.0016658837   3.54396174e-07      0.324855703
           0.275    0.00301520567       105538.555       0.32306786    0.00201510499   5.16654945e-07      0.325083965
           0.285    0.00301585491       105470.529      0.322896944    0.00241495395   7.40900381e-07      0.325312898
           0.295    0.00301650425       105402.527       0.32267176    0.00286933166   1.04637716e-06      0.325542138
           0.305    0.00301715378       105334.548      0.322388068    0.00338209591   1.45699328e-06      0.325771621
           0.315    0.00301780345       105266.592        0.3220424    0.00395703153   2.00213013e-06      0.326001433
           0.325    0.00301845326       105198.659      0.321631034    0.00459779794   2.71751355e-06       0.32623155
           0.335    0.00301910323        105130.75      0.321150411    0.00530791506   3.64618257e-06      0.326461972
           0.345    0.00301975336       105062.863      0.320597095    0.00609073721   4.83952515e-06      0.326692672
           0.355    0.00302040367           104995      0.319967753    0.00694942688   6.35838153e-06      0.326923538
           0.365    0.00302105417        104927.16      0.319259257    0.00788693751   8.27422102e-06      0.327154469
           0.375    0.00302170487       104859.344      0.318468678    0.00890599487   1.06703783e-05      0.327385343
           0.385    0.00302235578       104791.551      0.317593295     0.0100090876   1.36433659e-05      0.327616026
           0.395    0.00302300692        104723.78      0.316630684      0.011198465   1.73042625e-05      0.327846453
           0.405     0.0030236583       104656.034      0.315578851     0.0124761233   2.17801196e-05      0.328076755
           0.415    0.00302430995        104588.31      0.314436101     0.0138437896   2.72153945e-05      0.328307106
           0.425    0.00302496187       104520.609      0.313200952     0.0153029021   3.37733765e-05      0.328537628
           0.435    0.00302561408       104452.932      0.311872182     0.0168545972   4.16376056e-05      0.328768417
           0.445    0.00302626661       104385.278      0.310448792     0.0184996902   5.10132177e-05      0.328999495
           0.455    0.00302691944       104317.648      0.308929995     0.0202386357   6.21280704e-05      0.329230759
           0.465    0.00302757258        104250.04      0.307315158     0.0220714927   7.52337191e-05      0.329461884
           0.475    0.00302822601       104182.456      0.305603421     0.0239980176   9.06072701e-05      0.329692046
           0.485    0.00302887975       104114.895      0.303794191     0.0260177499   0.000108553311      0.329920494
           0.495    0.00302953383       104047.357      0.301887666     0.0281300666   0.000129405758      0.330147138
           0.505    0.00303018827       103979.842      0.299884795     0.0303341378   0.000153528977      0.330372461
           0.515    0.00303084312       103912.349      0.297786929     0.0326288557   0.000181318485      0.330597103
           0.525    0.00303149837        103844.88      0.295595391     0.0350128182   0.000213202047      0.330821411
           0.535    0.00303215407       103777.432      0.293311647     0.0374843372   0.000249640577      0.331045624
           0.545    0.00303281023       103710.008      0.290937357     0.0400414503   0.000291128989      0.331269936
           0.555    0.00303346687       103642.605       0.28847432     0.0426819188   0.000338196759      0.331494436
           0.565    0.00303412401       103575.226      0.285924451     0.0454032404   0.000391408507        0.3317191
           0.575    0.00303478165       103507.869      0.283289784     0.0482026723   0.000451364629      0.331943821
           0.585    0.00303543982       103440.535      0.280572493     0.0510772633   0.000518702002      0.332168459
           0.595    0.00303609854       103373.223      0.277774922     0.0540238658   0.000594094172      0.332392882
           0.605    0.00303675781       103305.934      0.274899641     0.0570390735   0.000678249327      0.332616964
           0.615    0.00303741763       103238.668      0.271949247     0.0601191427   0.000771907562      0.332840297
           0.625    0.00303807802       103171.424      0.268925851     0.0632601313   0.000875844837      0.333061827
           0.635    0.00303873899       103104.202      0.265831815      0.066458148   0.000990877941      0.333280841
           0.645    0.00303940059       103037.003      0.262670274     0.0697094511    0.00111786632      0.333497591
           0.655    0.00304006288       102969.825      0.259444936     0.0730102894    0.00125770767      0.333712933
           0.665    0.00304072588       102902.668      0.256159454     0.0763567444    0.00141133442      0.333927533
           0.675    0.00304138964       102835.534      0.252817313     0.0797447226    0.00157971249      0.334141748
           0.685    0.00304205417       102768.421      0.249422043     0.0831700055    0.00176384015      0.334355889
           0.695    0.00304271951       102701.329      0.245977173     0.0866282322    0.00196474519      0.334570151
           0.705    0.00304338565       102634.259      0.242486219      0.090114819    0.00218347782      0.334784516
           0.715     0.0030440526       102567.211      0.238952664     0.0936248295    0.00242109894      0.334998592
           0.725    0.00304472032       102500.184      0.235379289      0.097153032    0.00267868538      0.335211006
           0.735    0.00304538883       102433.178      0.231768538      0.100694343    0.00295734993      0.335420231
           0.745     0.0030460582       102366.194      0.228123806       0.10424423    0.00325825011      0.335626286
           0.755    0.00304672844        102299.23      0.224449247      0.107798474    0.00358257487      0.335830296
           0.765    0.00304739961       102232.287      0.220748907      0.111352751    0.00393152736      0.336033185
           0.775     0.0030480717       102165.364      0.217026438      0.114902533    0.00430631861       0.33623529
           0.785    0.00304874474       102098.461       0.21328541      0.118443182    0.00470816315      0.336436755
           0.795    0.00304941871       102031.579      0.209529318      0.121969874    0.00513826533      0.336637457
           0.805    0.00305009361       101964.717      0.205761177      0.125477532    0.00559781766      0.336836526
           0.815    0.00305076943       101897.875      0.201983597      0.128961105    0.00608802166      0.337032724
           0.825    0.00305144621       101831.052      0.198199642      0.132416047    0.00661010596      0.337225795
           0.835    0.00305212396       101764.249      0.194412845      0.135838233    0.00716531654      0.337416395
           0.845     0.0030528027       101697.465      0.190626744      0.139223586    0.00775488887      0.337605218
           0.855    0.00305348244         101630.7      0.186844543      0.142567831    0.00838002833      0.337792403
           0.865    0.00305416317       101563.954      0.183069074      0.145866523    0.00904190854      0.337977505
           0.875    0.00305484489       101497.226      0.179302973      0.149115242    0.00974168251      0.338159898
           0.885    0.00305552761       101430.517      0.175548892      0.152309794     0.0104804933      0.338339179
           0.895    0.00305621134       101363.825      0.171809565      0.155446258     0.0112594739      0.338515297
           0.905    0.00305689608       101297.152      0.168087732      0.158520904     0.0120797364      0.338688372
           0.915    0.00305758185       101230.495      0.164386014      0.161530075     0.0129423584      0.338858447
           0.925    0.00305826864       101163.856      0.160706854      0.164470142     0.0138483756      0.339025372
           0.935    0.00305895645       101097.233      0.157052537      0.167337537     0.0147987812      0.339188855
           0.945    0.00305964529       101030.627      0.153425249      0.170128826     0.0157945293      0.339348604
           0.955    0.00306033517       100964.036       0.14982711      0.172840752     0.0168365353      0.339504397
           0.965    0.00306102607       100897.461      0.146260171      0.175470233     0.0179256725      0.339656076
           0.975    0.00306171802       100830.902      0.142726391      0.178014331      0.019062766      0.339803488
           0.985    0.00306241101       100764.357      0.139227617      0.180470245     0.0202485886       0.33994645
           0.995    0.00306310504       100697.826      0.135765595      0.182835295     0.0214838549      0.340084745
