/*--------------------------------*- C++ -*----------------------------------*\
  =========                 |
  \\      /  F ield         | OpenFOAM: The Open Source CFD Toolbox
   \\    /   O peration     | Website:  https://openfoam.org
    \\  /    A nd           | Version:  12
     \\/     M anipulation  |
\*---------------------------------------------------------------------------*/
FoamFile
{
    format      ascii;
    class       volScalarField;
    location    "0.0135";
    object      k;
}
// * * * * * * * * * * * * * * * * * * * * * * * * * * * * * * * * * * * * * //

dimensions      [0 2 -2 0 0 0 0];

internalField   nonuniform List<scalar> 
106891
(
0.029496924506784816256
0.029396109802331010785
0.02935103675085430977
0.029341016545857433184
0.029342316562413092024
0.02935543773193014655
0.029404031699286174717
0.029536852302174555068
0.029675788092022380854
0.029791855263928499614
0.029881079797022012251
0.018501407709861653061
0.018519074251311499341
0.018603383778713306757
0.018866608546527701556
0.019167594817876706936
0.019406599686674342459
0.01959649657829911143
0.019756004834690397282
0.019900261556174980021
0.020047327046278817786
0.020205751299040234509
0.02038398860857105338
0.020577552426246700085
0.020780236973337570805
0.020979046774798032482
0.021161664111942216082
0.021315295692772660147
0.021433079197958782025
0.0215093019115159996
0.021548011025721017925
0.021560616567684150885
0.021560517398270563627
0.021549703598926977371
0.021499142861916051284
0.021428730334270441188
0.02138991699312015049
0.021375991534283451251
0.021375550634246523463
0.021388876656605430859
0.021456802036005240969
0.021632646414688334185
0.021815828337245719848
0.021992844367944179573
0.022181964733888864805
0.022390626309526588666
0.02262078524532186094
0.022866820247718751269
0.023109713477198066262
0.034435836188627541588
0.034382341031605298531
0.034213466206004149173
0.033712628945686495818
0.033046207977983098336
0.032446042200559736812
0.031934572185752636841
0.031528910285384154077
0.031233440968369288737
0.031039864763117080287
0.030930806033161346857
0.030881206146559144615
0.030869161279640927598
0.030869724411531178354
0.030881700549626103086
0.030928223395934397594
0.031057890807418525592
0.031204176252113274836
0.03131308448242919179
0.031411157501812905779
0.019631247439757745082
0.019655166327837800266
0.019759405067257956867
0.019985460686978945982
0.020194026873725196697
0.020383528395253213555
0.020567391506121239508
0.02075286231106154497
0.020947813190335853872
0.021150695586198017817
0.021362279434839245851
0.021575866257850344343
0.021786935037259466674
0.021988318316296207727
0.022172738434981981853
0.022330723964654897867
0.022456185384007416178
0.022541069322212156645
0.022587406741217234268
0.022603768993642230772
0.022604411112015304619
0.022594449155065903651
0.022548388130020687731
0.022496121418057134916
0.022473863789704725397
0.022472080160387927078
0.022486353854906104832
0.022567099737242655999
0.022831378741147250605
0.023147546292503217574
0.023417203247098349744
0.023660194301911796622
0.023890634902598247014
0.024118303357677995519
0.024342052990659088924
0.024552761374763098362
0.036256421426440976763
0.03620652500466377266
0.036058333751805463074
0.035613429285955268411
0.034965553144566341448
0.034369624650546222455
0.033854152594677180965
0.033439415357273009899
0.033133148691574555722
0.032928671470584071346
0.032810247051229958493
0.032753474416501088262
0.032736924404641834507
0.032735741137354008867
0.032742534809134124507
0.032771237831560273701
0.032856342555156035912
0.032957855228317831098
0.033027892419009878544
0.033109305806375652348
0.020923679883954625358
0.020936327689632765192
0.021004580190605054435
0.021210451524440593341
0.021442385280025198779
0.021647367540026569294
0.021841947199419026876
0.022037037792156318611
0.022241185348231339719
0.022452904408861124735
0.022666340229282804647
0.022872881946934268266
0.023068085233932885542
0.023253203566783262751
0.023429417514575872489
0.023591612803076693339
0.02373018684414363727
0.02383154787914619141
0.023892071761655156448
0.023915498836834352125
0.023918657704908311695
0.023912610497020814204
0.023892318398863937601
0.023881943900181220458
0.02388472641403270938
0.023912511557217554226
0.024036132255579458622
0.024285578654084757216
0.024501324708744245257
0.024680081636712390691
0.024835527708202572578
0.024984483061199682513
0.025140510298267342709
0.025312859170922678842
0.025500997965441935672
0.025696154637596155257
0.037980146308990346549
0.03762223552229773671
0.037021393256006292216
0.036435059757568118155
0.035904357683118511002
0.035451935095383080299
0.035094094020140693957
0.034835785336207417129
0.034667811132654567652
0.034573963316890603259
0.034531154298596884733
0.034520087492524699491
0.034519535867108146199
0.034525161104854297511
0.034546905081939832671
0.034597150668347384506
0.034646352015770078003
0.034679040937524413524
0.0347241147027320049
0.021866235182463080594
0.022103233023630645959
0.0223959591648625507
0.022630122724373955695
0.022822823689483795473
0.022998826144159410095
0.023177082471764788585
0.023373819485314743793
0.023588118343648288577
0.023814920580727500649
0.024039070887100964791
0.024247169763477061794
0.024429126752682741447
0.024578518263437768715
0.024693498146942889637
0.024775185806252132681
0.024824715568636874369
0.024847817401941734577
0.024854787054806575658
0.024853858820685748032
0.024847463617450334106
0.024844031623135580389
0.024847229330001805586
0.024871174019344233913
0.024968590906481877983
0.025131745371696902897
0.025263617341552743051
0.025371963535062443118
0.025469099598922656513
0.025575617132993062885
0.025710889751328375175
0.02588286123330958699
0.026101897340338697101
0.026355818418155402272
0.040079673906083169987
0.039838753074144535316
0.039289402179769464252
0.038689371737461543399
0.038117924458933971632
0.03760604848430607744
0.037175814010021290823
0.036842344902510669458
0.036606726495562333379
0.036458672265342273455
0.036379561146121876247
0.036348054766625940981
0.036341430759716131238
0.036342918094658061001
0.03635593892686978662
0.036394491394547708041
0.036431443594114328033
0.036456130439790318531
0.036471725739911413366
0.036477594356972314893
0.023076841233485211047
0.023152578446341245261
0.023343915804564331629
0.023533216615333505534
0.023718396126227871135
0.023918673856205309447
0.024143639784771273732
0.024392722622638477598
0.024657894104986449735
0.024925123546425478199
0.025180685672047439794
0.025411152029232345062
0.025603939941435494704
0.025749710479457364742
0.025847824001148132084
0.025902547504923111726
0.0259257966169060515
0.025930889417872343
0.025929015258918448883
0.025914450621363580712
0.025872927472258052534
0.025837738938845507264
0.025821479611967831924
0.025820498357698513925
0.025828650953159656978
0.025871610182579243137
0.026019410840579012406
0.026239933507833157478
0.02646039280138940894
0.026691931671429823536
0.026940246162771446653
0.027210090614369072254
0.027493880917493333099
0.041831169536580066481
0.04151172253004151852
0.04087383180166481722
0.040250723297904189568
0.039697614489476111543
0.03923750351530213426
0.038882221070728764656
0.03863188075048104575
0.038472694944546123597
0.038385682157418839211
0.038348590923334389957
0.038339576233199577915
0.038340031631513192545
0.038349201755305754868
0.038380357484916111099
0.038409646239313650906
0.03842729497476025935
0.038435606236471617225
0.038433903977348027325
0.024176279842644921025
0.024226598751956200661
0.024366825749876114271
0.024566820167349293774
0.024820182440954779296
0.025124857107107066712
0.025464188972937524397
0.025810746843612068085
0.026141044189864105773
0.026441274347225068864
0.026707662223184526484
0.026941638263364795641
0.027140665276122563632
0.027298283962800026781
0.027409877441547554622
0.027476095539430516607
0.027504628090596811019
0.027512485144447141466
0.027511394373302352351
0.02750215544173113813
0.027468629862435048339
0.027422324017066065233
0.027390666173660795091
0.027375993040448343835
0.027374442211198724006
0.027380028619589005801
0.027410918334684487851
0.027524777759519326176
0.027781794808381624073
0.028062869573788767202
0.0283679818119302804
0.02869173191085268651
0.044089592505052593863
0.043949007650011376325
0.043523092935979723617
0.042870282384714693269
0.042252744173078664314
0.041726983734281686278
0.041287534490510029161
0.040962263406223733964
0.040721645024881909791
0.040574015617039875525
0.040474466225598082492
0.040426839613163595422
0.040390364422858364424
0.040375043445103384054
0.040348999949489726402
0.04033215956530442764
0.040292903010696969057
0.040263511924275727227
0.040193713926831999006
0.025671735817039707805
0.025969786526309299873
0.026259190381983408408
0.026547310555645808189
0.026833721558556140191
0.027117831716579960527
0.027398269110967946038
0.027667536731623632723
0.027921746830181646409
0.028156913126227364058
0.028372156633295821104
0.028560256507553258981
0.028711761506103324754
0.028821619030832065778
0.028891515735894504613
0.028925073849003047483
0.028936629560465228217
0.028936590706491689684
0.028928613302507094618
0.028893403045810259894
0.028817792798396937165
0.028760433890242218663
0.02872669363204827242
0.028716132147208781739
0.028717951701169162904
0.028734239035320220668
0.028805374900918705866
0.029038017562094189938
0.029407169136506441931
0.02978237089446386307
0.045587729941817173307
0.045046615823827046432
0.04453273234658949864
0.044034837692845815726
0.043615335369736080162
0.043249486822180799317
0.042980239681449136646
0.04276303979293680918
0.042625737984848866002
0.042515738120015293677
0.042458337218686865999
0.042400344320614402616
0.042372478868666345331
0.042330339528599450483
0.042309023879893874198
0.042268924760589375589
0.042247467190391699288
0.042193082837834010312
0.027615224303402064604
0.027946940545883789536
0.028282483461930778973
0.028615138274589137918
0.028933909383614311167
0.029230402120332323046
0.029495883628214730754
0.029724304635838031535
0.029912832097225325323
0.030057069463777220247
0.030157743283743425333
0.030224107466923992582
0.030261261966902746473
0.030278335511682057807
0.030284192816119340219
0.030284200830652391323
0.03027895112141805456
0.030260035785040311634
0.030228535811972490066
0.030197922859339157431
0.030174126571041116202
0.030161463094720737665
0.030161019202264223449
0.030168548326055071723
0.030209965552606115463
0.030364445729358178344
0.030734292202751204576
0.031127102775459630779
0.047182694186568951977
0.046749882672877732248
0.046284720223038547382
0.045828089354508376452
0.045417660769687881461
0.045075630790610804466
0.044809858606126864999
0.044613170399466287042
0.044479025507279723595
0.044393775417086889234
0.044345105542906895768
0.044323689610176478237
0.044315974575538125135
0.044314503424246046159
0.044318705786265004398
0.044334933170846885231
0.044349918654274810004
0.04435091837609710097
0.029692129903665539364
0.029828553007738133757
0.029945242524078825863
0.030055599773384490681
0.030173528487989827174
0.030318667734354907278
0.030498541476892574581
0.030705918496320681182
0.030931636897701075134
0.031168144438602666396
0.031403233631868823772
0.03162263625534973005
0.031804825054241286919
0.031940020149430627117
0.032033219892219723379
0.032092256986077122294
0.03212096152633604762
0.032130684472291351494
0.03212947334870441124
0.032108662658108189092
0.032065745316160472467
0.032043762682376963902
0.03204130479057459846
0.032054245031968020552
0.032133216268419285966
0.032435993520530580214
0.032905451697781737397
0.048031102881592332987
0.047855130289987918291
0.047572271196916822433
0.047316584617418666614
0.047104100657611065739
0.046944342318836984607
0.046836942442560695887
0.046774530677139054824
0.046744427308467180471
0.046729542748870173119
0.04671756696634225825
0.046695237728239649688
0.046648859007525522724
0.046512980761862318668
0.046382528642402838515
0.046173139224800971436
0.04605870521055516198
0.030643308823089143028
0.030685383840075942941
0.030692893814897672516
0.03068713582186222491
0.030654879321811163984
0.030540175402901131863
0.030363763551095528798
0.030233441505112645942
0.030163167535560850285
0.030141046656075535376
0.030145426801677314282
0.030204034665402512
0.03046112084792956809
0.030998943048432953118
0.031481829872181725516
0.031888421176873828211
0.032227357059518256521
0.03251694923476600857
0.032778481488589722437
0.033026559446733209924
0.033279744886498298373
0.033538993820163211235
0.033792708153300911322
0.034047122560959090787
0.034299770121579774285
0.034525542302555958796
0.034685961158487287059
0.046941337379370222382
0.047241414238448464769
0.047457613497365713773
0.047607810025627687878
0.047704042100394729309
0.047757375254190409519
0.047781850563785539798
0.047785513869463891456
0.047782301862967030415
0.047768862004166273705
0.047728940780681690381
0.047624227551586857665
0.047250004119432760519
0.046931092524416379019
0.046253896955778250888
0.046041045814555883742
0.02560737415219919641
0.025583960962223498137
0.025484975725107404665
0.025205945795584574348
0.024904790137848260151
0.024660878733261427931
0.024480472415121957291
0.024364352235606102914
0.024305957164532522585
0.024287065487365186445
0.024286716219200678302
0.024302785376136767925
0.024370918533364527986
0.024578484287854855672
0.024929432532444933263
0.025346504907635177689
0.025844488923388690693
0.026419549945790279932
0.02704765987178475023
0.027686803774842876774
0.02828521579888217119
0.028797283636669959717
0.02918803283515910077
0.02944473620679069828
0.029579463857524652265
0.029626703233366715601
0.029628458065497527418
0.029608372311884054162
0.038983576434522861087
0.03925263428824668499
0.039440510655870369972
0.039553615489372209724
0.039609584117148627369
0.039623072675167944623
0.039621744029014104027
0.039604420087987167454
0.039539711580303248117
0.039277388565001965237
0.038860030454255178878
0.038135116866775967126
0.037802781413833586033
0.037150250814154399392
0.03698258659145556293
0.023615540086640466472
0.023628042405490493755
0.023630503347128680586
0.023625545159661885675
0.023596276015646931029
0.023545851977404951699
0.023517482174260914002
0.023510109614808205603
0.023517133242900861712
0.023568316609661396632
0.023750524464293893551
0.023959206186519779042
0.024110475440740537084
0.024226132138428807528
0.02433223943745161863
0.024462511853539481432
0.024640890935222824892
0.024877266375970298606
0.02516642423071975207
0.025487667248402956499
0.025820493079049159496
0.02614063769598756054
0.026428771162417846741
0.026663053146792289189
0.026833780934934381435
0.026938484900310179226
0.026984873997685107638
0.036859544913895925244
0.036877404353315490493
0.036883102171553959481
0.036883321444189161309
0.036877507341299249621
0.036859129433677299825
0.036806906457495791596
0.036668119054047133842
0.036309619331038808787
0.036037323544491725591
0.035659993973488082752
0.035461779003863845572
0.035118295122355404347
0.035002453479148862292
0.022483056011330992963
0.022504916926140039468
0.022508280460575760124
0.022503828097274025666
0.022484058636185941943
0.022469910599319090072
0.022470551066801250362
0.022492190083182813515
0.022598368352283234456
0.022857272888665087357
0.023079947648426472201
0.023241587149566134834
0.023355882244415055587
0.023440332336229781351
0.02352137466288515763
0.023622954268980540793
0.023761935162796794796
0.023949089997336182184
0.024176930904258774752
0.024431388547109529619
0.024687423950890491353
0.024923906247628399568
0.025117895406034738276
0.025258519461641874143
0.025341817454572441309
0.025374978860122059804
0.035112876331636129479
0.035117216216767083159
0.035117222463806919974
0.035112867755020822635
0.035100807734697814233
0.035070172395517323904
0.034993450793423287737
0.034768945382844487768
0.034583740991346825777
0.034302439037400024591
0.034157934226183482573
0.033890980209638571496
0.033799659543186928723
0.021586442720227361214
0.021583048266297488044
0.021566887026225393248
0.021550036435915423394
0.021546556608020170365
0.021552309606751467175
0.021591301341739380093
0.02174771860749090055
0.022017682223529819879
0.022239673277549880381
0.022417036268008685984
0.022568810665072332189
0.02271119241940766989
0.022858332257068052912
0.023016474552228449041
0.023186843375671156026
0.023362772116431382297
0.023533966097109167842
0.023690065608666339286
0.023821069707576240926
0.023924670980766025996
0.023999118144146076859
0.024048077020172187873
0.024073503591938542889
0.02408192553343622283
0.033714856371309054328
0.033713728057725822485
0.033708964767576211907
0.033697994452966707757
0.033670903387109922533
0.033605476542012499563
0.033415685609159716252
0.033261974393250730297
0.033008796135492547708
0.032880036618347506516
0.032628725376626824262
0.032543715876498333084
0.021069252146220039668
0.021065275530357894379
0.021049029315106375371
0.021037498161366793153
0.021038224335860205433
0.021053572240354759965
0.021126567704385056101
0.021339139237152145168
0.021549887522927160116
0.021709478180125349467
0.021837693605740025882
0.021956600239434145849
0.02208410296648523688
0.022231967395500745049
0.022398282318160180754
0.02257716889842666802
0.022751382767560574677
0.022906909103436748354
0.023034262316182732566
0.023129971528973437139
0.023199530985800017463
0.023247206036991589773
0.023278136481899708993
0.023292635772550477485
0.02021366558377054104
0.020204870642247969859
0.020205139210189574511
0.02021816656368265186
0.020276253732975667299
0.020422735459010403491
0.020568325482132426146
0.020700314854845809631
0.02082442244491222727
0.020946457454205976573
0.021071039338944715785
0.021204335128210721056
0.021352610365379300766
0.021517457718524896082
0.021698099990715369323
0.02188346805702209158
0.022060685694541351531
0.022216690971221458167
0.022341550289993822309
0.022433856731860671307
0.02249466283570532299
0.02253021752729285343
0.022544098624590832441
0.019301619573597515733
0.019399341632185176237
0.019595702884199941995
0.019778772594054250256
0.019933621205493034373
0.020058650784347917262
0.020158762651542316835
0.02024750329839474644
0.020337373428072767073
0.020442770999954097688
0.020568933502252396972
0.020720835999131194394
0.02089213457322407555
0.021073821665656952695
0.021250643736685972257
0.021406326695608334648
0.021530601970843755988
0.021618994087608936483
0.021674584497515986953
0.021703744685444652934
0.021714243589353955655
0.019086711393070689841
0.019305711549200247484
0.019476122435674515787
0.019607734942781934045
0.019712346908739939583
0.019803406071428223539
0.01988929994343960686
0.019981176809139904182
0.020083184817766337737
0.020198935614719030346
0.020321517832344634935
0.020444331883295075586
0.020564289630856064789
0.020675439287001808053
0.020775943534764668152
0.020854672993341569903
0.02090874497515109523
0.019032616447210676941
0.01915910047010870379
0.019285528509248622137
0.019419000443949806234
0.019556023223264513283
0.01968949442641092229
0.019805682332559221281
0.019893673397697528293
0.01995419782851310872
0.01999115103045227132
0.020017277066529514523
0.020035982247988401439
0.020051870348356946872
0.018149426442397635639
0.018259964505723091932
0.018398155271943324868
0.018568601665599017425
0.018762097684155498029
0.018959596643332521371
0.01914154299603159845
0.019287478351360388962
0.019392124830292904042
0.019456714910743935082
0.01949222029878679846
0.019507159324928621813
0.0096238872310955222988
0.0095711576067870566403
0.0095675025023193357304
0.0095871534311892485369
0.0096862032833457557129
0.010052898238969968162
0.011233170283438004625
0.01282421962585382838
0.014084786856956793902
0.014965605906931895783
0.015485496515951213681
0.015723544592122679769
0.015783483598414894955
0.015775957747151556076
0.015688641334988290277
0.015326635785525937611
0.01437812198987859641
0.013451852711021925618
0.012741671272042082858
0.012250714117897156669
0.023734999028326320136
0.023339390800929445818
0.023170862544127351218
0.023163306202774781167
0.023227457832649248126
0.023495475112409715257
0.024371131669595501312
0.026771716153519857506
0.029326266957429510812
0.031215571902077011296
0.032396907809253833177
0.032989927282713500667
0.033170925871551244779
0.033178320202427669106
0.033084186814949664845
0.032688338587928987555
0.031479972892511066951
0.030016102365248063799
0.028877014849984974226
0.028101436691749019647
0.027668367682454727413
0.027505584490275344217
0.084721444688311720039
0.084844072325291050585
0.085045448946054161277
0.085376057430161245154
0.085968715931435832345
0.087174836984383108351
0.090149630112258419268
0.09523056222071123178
0.1002110031657754835
0.10428384593223910537
0.10704180505000428225
0.10857626550183789582
0.10913706605681039452
0.10924797498271726637
0.10916683490883596908
0.10865831688838054059
0.10697633915578912134
0.10500215102690955982
0.10365396583808529629
0.10303442522678345206
0.1029236633348277058
0.10297658448037039225
0.10321305127350501041
0.10380592723818356238
0.10529436093974235689
0.10835786766657479196
0.44526017002429751912
0.44871111090004822675
0.45366799273485053368
0.46101208698254175777
0.47115107196746897067
0.48443637445379844619
0.49969190128135987372
0.51561369008835744587
0.53013883667702987879
0.54177609980686769475
0.54944711849740746068
0.55345803612564259399
0.55477182869676855415
0.55495635755491290464
0.55430409665970736821
0.55246739591828319949
0.55149044555499870945
0.55126367296567613252
0.55143154475185496288
0.55244876492193262241
0.55596420652509959126
0.56525319010659846874
0.57755918822645879729
0.59091176371137543732
0.60474669078175069536
0.61824411579545879292
0.63075217541207651006
0.64174839212721990211
1.9914863491843131094
2.0041246453870309452
2.0180763693111956059
2.0337363041333973435
2.0511530217013844712
2.0696552045523226582
2.0880740924589953345
2.1047542220166111093
2.1183114673176817178
2.1276320579552145951
2.1327042515217047303
2.1344879120982032106
2.1347640344223468567
2.1343174006122458408
2.1335485057702299194
2.1334928399808155142
2.1340604656866091204
2.1364475745320423705
2.1427359499971947443
2.1511997845606489754
2.1613039769581030569
2.1732135478112870608
2.1863735646071535967
2.1999342163641215642
2.2128841982195366356
2.22468371966870615
2.2349057584707345825
2.2433553296258761378
2.2497177550302995819
2.2538975110126893142
4.4260422451695520252
4.4216514121768017986
4.4163747681028038272
4.409862635394995678
4.4018446371917905324
4.392219328815178514
4.3810544490174416765
4.3685272903926835042
4.3548698093377682383
4.3403897017980863637
4.3255604732896033582
4.3110681466498830261
4.2976961523333070403
4.286033957186032417
4.2762465141977807903
4.2680329825310652225
4.2608238443779962168
4.2540396053290514544
4.2472752481225306553
4.2402930546658792466
4.2329263565433743466
4.2249423489894688544
4.2160168645450264435
4.2058015767176337718
4.1941714480941714172
4.1812823226448365688
4.1675983639572971029
4.1536139854060349919
4.1397383250109882624
4.1261546420775347954
4.1129221256074357527
4.100120930502547445
6.1231465917942005106
6.0945587929997246945
6.0662015844587386937
6.0376210004234849293
6.0086477296598479469
5.9795012498390294198
5.950643049440758503
5.9224459009201444459
5.8949768635839525643
5.8679734181282903194
5.8411057620838828797
5.8143185992466825951
5.7878970301360972428
5.762243956559840008
5.7375418624349636687
5.7135297618300251443
5.6897183986165957847
5.6657675307168045009
5.6417033613351668109
5.6177751234919002243
5.5942593738747312671
5.5711894176488598873
5.5483360923850417734
5.5253854215726621035
5.5021676750115178223
5.4787399001299039725
5.4553305503929108156
5.4321591165213662933
5.4093048849950324808
5.3867505350788853491
5.3645108520945496977
5.34272129388099426
5.3215727338393348234
10.34885799610550805
10.248997490427688817
10.151943098948835953
10.056869054430416455
9.9632451882853967362
9.8715282135484052617
7.0436655481591063932
7.006464558883554794
6.9693737375538056256
6.9318607288225138063
6.8938297033148012716
6.8557279575880576417
6.8182863033649923068
6.7820292693079808899
6.7469785590304880429
6.7126453693993877181
6.678498553633819057
6.6444506484133025737
6.610863950359929575
6.578215273512651784
6.5466559554954137923
6.5158523902043858911
6.4852368733116945165
6.454493608123251569
6.4237967273152829506
6.3936132058419312685
6.3642837789357953326
6.3357539848849331321
6.3076244557668506019
6.2794695183805711025
6.251102444124890134
6.2226698306298233732
6.1944970060622619457
6.1667919229181666907
6.1395740971662142726
6.1127279478663476553
6.0862588378559197011
6.0603867656650933782
6.0353253855096431479
6.0111121354887560031
10.13258774268077822
10.030775862841149859
9.9303615804251084143
9.8319506768715818623
9.7354706541028477318
9.6414713510947791519
9.5509050841861871106
6.7014521373909552437
6.6563673600266008989
6.6103694825403707114
6.5640653446166199458
6.5189706437522225713
6.4766706946222285524
6.4378217664466816927
6.4018508411146912707
6.3673656396765867527
6.3331876458257854168
6.2991807037948248649
6.266189436721677275
6.2351957184558619574
6.2063607788186514469
6.1788571435069865601
6.1515103288361183687
6.1236687811184014052
6.0956804520110123846
6.0683604784401206089
6.0421825345997230983
6.0167583573660108343
5.9911556752004404558
5.9645051749427029364
5.9366708282157647503
5.9083040030181814828
5.8804142759339299573
5.8537360529270676679
5.8285112070411884133
5.8046597877041712366
5.7821346771522197372
5.7610349689047470889
5.7413254937080351326
5.722540720048788998
5.703773441620361595
5.684114221129618727
0.00067637091981390107514
0.00063960021405269108785
0.00060435998910317811038
0.00057868292820192077444
0.00055114056037067367649
0.00053107730947821488957
0.00050690595650525497803
0.00048922719751051375967
0.00046641492204688801606
0.00045019620516414596409
0.00042808645509954544508
8.3805407094714669974e-05
8.7559813809357609914e-05
9.0784531498170009819e-05
9.2700557542927601151e-05
9.360826840128512699e-05
9.3894281607992966313e-05
9.3939635512224885726e-05
9.3896827443139420756e-05
9.362721859508740124e-05
9.26794106008843458e-05
9.1386753757227189086e-05
9.0269587341067396096e-05
8.9341943036209028992e-05
8.8647041808295466464e-05
8.8249959235734424167e-05
8.8143376323910008359e-05
8.8264890187367714912e-05
8.9230769616651682877e-05
9.2741999811598826216e-05
9.6459626618965760183e-05
9.8480724101911073501e-05
9.9177806496312444239e-05
9.9231454839475571276e-05
9.9138159054305735368e-05
9.8879594757121441403e-05
9.8601672449593973611e-05
9.8108334164142852471e-05
9.6927247588797827457e-05
9.4268250176948668981e-05
9.1174834338919640356e-05
8.8082329121495642546e-05
8.5249985703955371663e-05
8.2905530727662562216e-05
8.1165915271971914328e-05
8.0001086854798806724e-05
7.9312313819320480663e-05
0.0013422778949863669283
0.0013322414394010553221
0.0013081575344999546093
0.0012456710554056668779
0.0011556869504484629414
0.001066990889941210217
0.00097796918718858340085
0.00089930516821498782034
0.000826786837582069601
0.00076846795547776776056
0.00071711319784491462173
0.00067866806124579966576
0.00064434523919483922653
0.00061921635284199532875
0.00059409824261067952812
0.00057541403010696716164
0.00055281301310980987627
0.00053601233290570071775
0.00051252440127272543002
0.00049605415351814752603
0.00047082225353834746126
8.672343054191821441e-05
8.6714054373356210361e-05
8.7064011629503341668e-05
8.8560675406895931062e-05
9.021313268951632817e-05
9.1137693946519176711e-05
9.156279654886277338e-05
9.1689990182051839935e-05
9.1702354419416284175e-05
9.1649130362034280685e-05
9.1318537000539693263e-05
9.0167468144479567924e-05
8.883808127557577981e-05
8.7982912805809222875e-05
8.7636530396680812033e-05
8.7637861090948370314e-05
8.8151557191480187244e-05
9.0816084417738728745e-05
9.814378357402575863e-05
0.00010435714188483496674
0.00010782639593029546047
0.000109111557508505269
0.00010921976057938698667
0.00010884670238983866865
0.00010700059500459813502
0.0001033811977046892813
0.00010044269942023365547
9.8042188245251628959e-05
9.5944682633515362556e-05
9.3995035819170489146e-05
9.2140031933034621738e-05
9.0441457741210004454e-05
8.9076230305860698479e-05
8.8092339776063278934e-05
8.7395769272662917303e-05
8.6838100646115164724e-05
0.0014192317061909910658
0.0014115709769968497536
0.0013946749573214335411
0.0013491500159530317796
0.0012553800492964097869
0.0011566249490065614626
0.0010598160604391813205
0.0009745080383718009772
0.00089961075987881244844
0.00084076596542968871223
0.0007921209205994237312
0.00075699287713319339446
0.00072690655171883384982
0.00070515447317684800971
0.00068221316495366138895
0.0006631341333030273729
0.00063862082622067359132
0.00061665433830330074628
0.00058733684684224209821
0.00056261946103176407701
0.00052960378589027854498
8.179319210173967476e-05
8.1982425791981509283e-05
8.2921153147317962022e-05
8.407312793176108408e-05
8.4668880274997584891e-05
8.486114932548514977e-05
8.4873594904961690015e-05
8.4816287942088476213e-05
8.457194551291507417e-05
8.4123860111175784789e-05
8.3688406247115377113e-05
8.3289805820862871993e-05
8.2996979535750583026e-05
8.2885418091474340782e-05
8.2937619435374313717e-05
8.3499446199635868554e-05
8.6047504762795727325e-05
9.1069534830028075513e-05
9.4743527962284267369e-05
9.6716510423995130674e-05
9.7361196217946423606e-05
9.736867757291839333e-05
9.7113042039497415652e-05
9.6828454650633386793e-05
9.6840132538290077217e-05
9.7193915093822321632e-05
9.8820310924739994288e-05
0.00010148937143362585765
0.00010318033860643326843
0.00010399927676106245045
0.00010425643226216621887
0.00010426634683668116856
0.00010413274700116797902
0.0001033721070566153891
0.0015125521958121895035
0.0015094951771695206116
0.0015022016172001363687
0.0014805800971406522966
0.0014111978821698093096
0.0012911831332567003799
0.0011823633775202816061
0.0010876308741609910097
0.0010114829050251602453
0.0009482355026484239318
0.00089900754681958175516