/*--------------------------------*- C++ -*----------------------------------*\
  =========                 |
  \\      /  F ield         | OpenFOAM: The Open Source CFD Toolbox
   \\    /   O peration     | Website:  https://openfoam.org
    \\  /    A nd           | Version:  12
     \\/     M anipulation  |
\*---------------------------------------------------------------------------*/
FoamFile
{
    format      ascii;
    class       volScalarField;
    location    "0.0135";
    object      nut;
}
// * * * * * * * * * * * * * * * * * * * * * * * * * * * * * * * * * * * * * //

dimensions      [0 2 -1 0 0 0 0];

internalField   nonuniform List<scalar> 
106891
(
9.8724133502758126222e-06
9.8486852786631128698e-06
9.8342992383659919297e-06
9.825793679860821432e-06
9.8191892021438765387e-06
9.814565468671745946e-06
9.8158656117269433585e-06
9.8311797152603154563e-06
9.8474328226973967368e-06
9.8598211594666637143e-06
9.8677189911032562274e-06
9.8873115756636142438e-06
9.8851630363860572731e-06
9.9007601463834943691e-06
9.9636359928804686209e-06
1.0035825710187926962e-05
1.0091190173354268011e-05
1.0133401532383403838e-05
1.0167494879755980519e-05
1.0197463499473300022e-05
1.0227968260603963934e-05
1.0261172824398549118e-05
1.0299175327844384669e-05
1.0340775094446934208e-05
1.0384362706895894124e-05
1.0426675156316250479e-05
1.0464686992898116001e-05
1.0495312685144067046e-05
1.0516963150459888711e-05
1.0528332505305173396e-05
1.0530485534519886434e-05
1.0526251837401227657e-05
1.0518919320833641339e-05
1.0508979675652430256e-05
1.0489356382497191675e-05
1.046489450932302263e-05
1.044815366660475403e-05
1.0437500346350580798e-05
1.0430146073333804716e-05
1.0426152909844271172e-05
1.0435444817887640039e-05
1.0470843326319023543e-05
1.0507782045727197679e-05
1.0543001526768839451e-05
1.0580883701410483019e-05
1.0623152678645477926e-05
1.0670198714354940816e-05
1.0720620553049586813e-05
1.0769925102949209477e-05
1.1012964451261191248e-05
1.0996766646573691e-05
1.0962110912964791095e-05
1.0874025103359117082e-05
1.0758536648492502598e-05
1.0652992439632341968e-05
1.0561355767668127267e-05
1.0486775440532788775e-05
1.043027529007297088e-05
1.0390683863438070097e-05
1.0365212423569235097e-05
1.0349707644198383137e-05
1.0340504703853655206e-05
1.0333419594531006395e-05
1.032824802913226516e-05
1.032884852978107308e-05
1.0343291584975957819e-05
1.0360423694325491598e-05
1.0371282091015518979e-05
1.0380298896050641321e-05
1.0442329855285093865e-05
1.0441434958873855581e-05
1.0461817139858006217e-05
1.0514185651949557601e-05
1.0561567792898209699e-05
1.0603639986352922627e-05
1.06439608164160967e-05
1.0684421895355371878e-05
1.0727036026542437344e-05
1.0771373542335747621e-05
1.0817600094101092651e-05
1.0863996423678297975e-05
1.0909426715351160938e-05
1.0952121030211900519e-05
1.0990318041927290326e-05
1.1021745073095622601e-05
1.1044989806969057993e-05
1.1058162077174487763e-05
1.1061836795393715607e-05
1.1058159690898284745e-05
1.1050639022214816886e-05
1.104053298449353625e-05
1.1021616061766316836e-05
1.1001191327925025412e-05
1.098811340616543868e-05
1.0980048673117328217e-05
1.0975909428665243711e-05
1.0987964186371130003e-05
1.1044442463011780599e-05
1.1112929909421583451e-05
1.1169711963252922617e-05
1.1219719035339341764e-05
1.1266396736811560319e-05
1.1312092251476868143e-05
1.1356552946175449347e-05
1.139768018033299051e-05
1.1594196270380915072e-05
1.1578171250812731562e-05
1.1546430357051447094e-05
1.1467009635718908178e-05
1.1354338784742255762e-05
1.1249349456599083385e-05
1.1156920898839060738e-05
1.1080671628561286014e-05
1.1022153844438182819e-05
1.0980461285977026465e-05
1.0953088518805747994e-05
1.093601008008521588e-05
1.0925655901361645239e-05
1.0917872954668421696e-05
1.0911424780468208411e-05
1.0908627294166205817e-05
1.091519896492515751e-05
1.0924457646047296694e-05
1.092846615955777227e-05
1.0934330216515055314e-05
1.106093274829752715e-05
1.1056593390173314058e-05
1.1066911950917464815e-05
1.1113293275704796029e-05
1.1166131364286620249e-05
1.1211587156462867867e-05
1.1254043646349419183e-05
1.1296343595741063635e-05
1.1340667484093989214e-05
1.1386605715967821584e-05
1.1432654716187507987e-05
1.1476651567462850905e-05
1.1517517818554021694e-05
1.1555610175458166171e-05
1.1591258690226744109e-05
1.162323544660546507e-05
1.1649228523515269218e-05
1.1665975991682066114e-05
1.1672670459819413483e-05
1.1670283553497717242e-05
1.1662951104164268968e-05
1.1653380168349820528e-05
1.1640347173303675798e-05
1.162973958754062422e-05
1.1622342123446993795e-05
1.162102627625241859e-05
1.1642936958187019336e-05
1.1695070606798115467e-05
1.1738747738181754741e-05
1.1773311901643105821e-05
1.1802130611689000549e-05
1.1829251659039178297e-05
1.1857892209503467502e-05
1.1890207181363810602e-05
1.1926026654282204437e-05
1.1963262237037744216e-05
1.2166737058712555751e-05
1.2100866546085222559e-05
1.1995515565340170332e-05
1.1891883583281551921e-05
1.1796762975737319648e-05
1.171406453082152802e-05
1.1646703616527085952e-05
1.159570546815890818e-05
1.1559683689748990643e-05
1.1536011751258560325e-05
1.1520863234982229071e-05
1.1511019343021449372e-05
1.1502935389855792919e-05
1.1495885517294455967e-05
1.1491520956748480878e-05
1.1491890342034536863e-05
1.1492074435606525735e-05
1.1489511903900134654e-05
1.1488993878675582948e-05
1.1593307401422952863e-05
1.1647872603110490089e-05
1.1716608296228684709e-05
1.1769524001367216587e-05
1.181132170842147287e-05
1.1848544743857451802e-05
1.1886114993901771681e-05
1.1928168188804072074e-05
1.1974404563545793095e-05
1.2023480780570599833e-05
1.2071544801515568364e-05
1.2115264630994460396e-05
1.2152194624573183244e-05
1.2180832198409383336e-05
1.2200813461164735789e-05
1.2212492366877894604e-05
1.2216206139538686231e-05
1.2213403409003982547e-05
1.2206635283897554576e-05
1.2197932496453626656e-05
1.2187895181204660958e-05
1.2178592029019459259e-05
1.2170919683685774973e-05
1.2168328404973485801e-05
1.2183670989235638243e-05
1.2214925935321155391e-05
1.2238428264735398704e-05
1.22561279241369588e-05
1.2271041041120980049e-05
1.2288136881239285523e-05
1.2312036640402351616e-05
1.234456682328795475e-05
1.238808333834272429e-05
1.2439550852352033135e-05
1.2832426568331835296e-05
1.2784917597483291981e-05
1.268764860207716321e-05
1.2581651080568919589e-05
1.2479718450627275264e-05
1.2387035509199908356e-05
1.2307423410907769555e-05
1.2243593360298718475e-05
1.2195906303470601428e-05
1.2162768005906025956e-05
1.2141129553317580233e-05
1.2127445149168661529e-05
1.2117920797751461802e-05
1.2109755183064159603e-05
1.2103515062337684121e-05
1.2101522884715397771e-05
1.2099258516668974134e-05
1.2094953898771979559e-05
1.2089141364479147613e-05
1.2081719842115724674e-05
1.2219622353411292891e-05
1.2231160133733423812e-05
1.2273069420849722167e-05
1.2314175805610831868e-05
1.2353946867248895834e-05
1.2397382059414836417e-05
1.2446899275106102962e-05
1.2502253743293139626e-05
1.2561298285638307872e-05
1.2620412893537656261e-05
1.2676140566761618614e-05
1.2725176493384141203e-05
1.2764488134309032221e-05
1.2791884986540417014e-05
1.2807333879463796218e-05
1.2811982703723393182e-05
1.2808831892821361223e-05
1.2801195916183253403e-05
1.2791845816992149427e-05
1.2779373824663950069e-05
1.2760265874411655596e-05
1.2742732244158294001e-05
1.272987776917593384e-05
1.2720797765761889699e-05
1.2713972465327672275e-05
1.2715706675504757776e-05
1.2743122783142941227e-05
1.278812492627337862e-05
1.2832817419290766886e-05
1.2879892575184365174e-05
1.2930680624500342937e-05
1.2986256184187494931e-05
1.3044738048518443214e-05
1.3441394491198360072e-05
1.3380676407554432326e-05
1.3268252694828697446e-05
1.3157587553474014972e-05
1.3057799499629163081e-05
1.2972893159389105108e-05
1.290506085717565865e-05
1.2854518598498211479e-05
1.2819100792371301256e-05
1.2795706088890137825e-05
1.2780642788098584334e-05
1.2770268017605204903e-05
1.2761477472734209152e-05
1.2754142228055054465e-05
1.2750463313144038321e-05
1.2746471479917275104e-05
1.274054771707572603e-05
1.273307878299003965e-05
1.2723956496086468736e-05
1.2823659149695026613e-05
1.2828084706225660852e-05
1.285622431304199784e-05
1.2899913632316612706e-05
1.2957260218204119607e-05
1.3027493434022607204e-05
1.3106066093018315717e-05
1.3185787783776986999e-05
1.3260674917490224031e-05
1.3327347471431278056e-05
1.3385014127291606194e-05
1.3434183109793362064e-05
1.3474351559704836703e-05
1.3504038584047891241e-05
1.3522217284116535126e-05
1.3529141498777200336e-05
1.3526766251638144774e-05
1.3519305252720023201e-05
1.3509651052560281285e-05
1.3498004333346771611e-05
1.348040879533426161e-05
1.345969006544397817e-05
1.3442578916146482505e-05
1.34296472337772017e-05
1.3419942964310789557e-05
1.3411993872749220424e-05
1.3410240206594361642e-05
1.3428733078526260502e-05
1.3481916945534438396e-05
1.3540537470595811415e-05
1.3604495805054612307e-05
1.3672407064191330299e-05
1.41583167925589083e-05
1.4125911674512872871e-05
1.4047537229824084306e-05
1.3932108734916364825e-05
1.3821796993808023644e-05
1.372599742108626546e-05
1.3644048614981344099e-05
1.3580761523885182392e-05
1.3531413753974888304e-05
1.3497485812505187111e-05
1.3471557693968530994e-05
1.3454281586592054846e-05
1.3438873614761329717e-05
1.3426995764277618257e-05
1.34133453042656058e-05
1.3401234984595405261e-05
1.3385411593080005449e-05
1.3371238767379831281e-05
1.3350368484231042352e-05
1.3548539202576988333e-05
1.3617500862628448063e-05
1.3683659357700736606e-05
1.3748971769421084187e-05
1.3813342375570167135e-05
1.3876635131533602706e-05
1.3938518596063927005e-05
1.3997119475171197872e-05
1.4051512732539387274e-05
1.410076503728067778e-05
1.414473113141092091e-05
1.4181688464440476372e-05
1.4209381503475504167e-05
1.4226655301990138365e-05
1.4234006264005635592e-05
1.4232382077397637485e-05
1.4225341300316986289e-05
1.4215455171548967777e-05
1.4203627177122705067e-05
1.418512511745627239e-05
1.4156716884442623172e-05
1.4132801955990848154e-05
1.41147030078806764e-05
1.4102310137821465565e-05
1.4092965441155844638e-05
1.4087173823155929453e-05
1.4094807731863165024e-05
1.414178526915177951e-05
1.4221510727717158836e-05
1.4302011541198953503e-05
1.476098001599894135e-05
1.4662926594509856609e-05
1.4568928554670784446e-05
1.4477197828578692297e-05
1.4398070106922640835e-05
1.4327602426588335489e-05
1.427301840355531853e-05
1.4227023885240005558e-05
1.4194303868193197882e-05
1.4166134834150659772e-05
1.4146739851180785888e-05
1.4127259888977326528e-05
1.411281165347926779e-05
1.4095998744532028076e-05
1.4082664924494430175e-05
1.4066216905179812301e-05
1.4052882509388199149e-05
1.4034084028056442993e-05
1.4407438295663222574e-05
1.4483648715289522974e-05
1.4560221610244892672e-05
1.4635430622899517651e-05
1.4706506056961751364e-05
1.4771401722777010256e-05
1.4828027633352109825e-05
1.4874997440505619291e-05
1.4911735140919230526e-05
1.4937265447876298601e-05
1.4951871917047893394e-05
1.4957921758953279589e-05
1.4956721229567253008e-05
1.495055265285918812e-05
1.4941617565681037671e-05
1.4931245649274161032e-05
1.4919585649107084644e-05
1.4904569410410078493e-05
1.4886466958160673998e-05
1.4868596793051177675e-05
1.4852418205346874558e-05
1.4838991449750805281e-05
1.4828579691589621241e-05
1.4820133716852037755e-05
1.4820006613152629136e-05
1.4847533988372354607e-05
1.4927312468777404421e-05
1.5011971541443976986e-05
1.5407487920540220342e-05
1.5326009742728944132e-05
1.5238984343128270197e-05
1.5153098410897353242e-05
1.507461801061200201e-05
1.5007322247414118851e-05
1.4952625462578397327e-05
1.4909414150750005968e-05
1.4876646167291067069e-05
1.4852063893864882323e-05
1.4833614277380181173e-05
1.4819735568642050999e-05
1.4808157367484663767e-05
1.4797630512543167642e-05
1.4788057718750614405e-05
1.4780495653921657811e-05
1.4772729632502579325e-05
1.476263938298678559e-05
1.5317249356844867469e-05
1.5341738161237468066e-05
1.5361044857451826388e-05
1.5378639136168866295e-05
1.5398081828495616499e-05
1.5424354460592703311e-05
1.5459300613061148949e-05
1.5501000137364338811e-05
1.5547067787170928618e-05
1.5595556667796492883e-05
1.564339311041476049e-05
1.5687046247919702924e-05
1.5721247791268034861e-05
1.5743687726709048187e-05
1.5755694028986422088e-05
1.5759257008406031959e-05
1.5755356806404261058e-05
1.5746800659504250262e-05
1.573557115853480934e-05
1.5719552671384138089e-05
1.5698136848054912657e-05
1.5681859602744062051e-05
1.5670370737817667132e-05
1.5662652687483385593e-05
1.5671046769519680235e-05
1.5733772906184041414e-05
1.5836221593114824604e-05
1.5938570700922109898e-05
1.5898300884158099683e-05
1.5840240467779898725e-05
1.5786646656304019205e-05
1.5740224375735888346e-05
1.5702599607632069715e-05
1.5673737256591914252e-05
1.5652415943933774387e-05
1.5636514407786316337e-05
1.5623170059798758527e-05
1.5610322288638462757e-05
1.5595755689463532346e-05
1.5577186065954835967e-05
1.5543683598160801522e-05
1.5511094323493068335e-05
1.5465298114819436311e-05
1.5435397711763279506e-05
1.5976396413663173913e-05
1.5976260957969515151e-05
1.5967122264986930878e-05
1.5954539621929924366e-05
1.5935080847978305046e-05
1.5894197166265970357e-05
1.5837221825099658126e-05
1.5792226315400485678e-05
1.5762910364606140377e-05
1.5746189153122528445e-05
1.5736399945781713073e-05
1.5740753322704274016e-05
1.5796626131459013623e-05
1.5924404827008265548e-05
1.6036814919771823982e-05
1.6128835358696731392e-05
1.6203066413954831396e-05
1.626440312011200059e-05
1.6318341418556578788e-05
1.6368603678146228668e-05
1.6419817578828795404e-05
1.6472204113009379634e-05
1.6522911090303663868e-05
1.6573477418837114872e-05
1.662330622597205985e-05
1.6666347077546556039e-05
1.6693423098000876524e-05
1.61552412915776645e-05
1.6195543671704891404e-05
1.6221290449434535945e-05
1.6235659028079530748e-05
1.6240775998097475673e-05
1.6238569868775414842e-05
1.6231453162181713631e-05
1.6220805510448233383e-05
1.6208998695475410133e-05
1.619546671458465639e-05
1.61774581572379386e-05
1.6148482828376945354e-05
1.607374394797196206e-05
1.6008285436291105539e-05
1.5881335415755831351e-05
1.5833750988351890949e-05
1.2714019014826338549e-05
1.2699382135591907479e-05
1.266599110490551069e-05
1.2587715894542650009e-05
1.2503604936628732368e-05
1.2433587087341726245e-05
1.2379423794200163339e-05
1.2341454175444158475e-05
1.2318097324224898143e-05
1.2304760235007066983e-05
1.2296128684816719513e-05
1.2291655875337708341e-05
1.2300327729324548188e-05
1.2344020925872824557e-05
1.2423205345523731619e-05
1.2517997920959725934e-05
1.2631594488553172463e-05
1.2762485898232564413e-05
1.2904339566437682263e-05
1.304685129661480691e-05
1.3177936669775751311e-05
1.3287454689175493057e-05
1.336801162013129092e-05
1.3417345465471996744e-05
1.343866982150851483e-05
1.3440058688790147416e-05
1.3431125076381579815e-05
1.3417249680559900483e-05
1.2807496928002664406e-05
1.284269566948795127e-05
1.2864455786038010338e-05
1.2873943962748955546e-05
1.2874104462795759923e-05
1.2867356385696548552e-05
1.2858207055990692968e-05
1.2846470292790854303e-05
1.2827059313635289618e-05
1.2775562288368815634e-05
1.2698682247932745632e-05
1.2570947002695853902e-05
1.250736139911599877e-05
1.2390335415730763293e-05
1.2353761033562815053e-05
1.1968389009839240127e-05
1.1963244893684011485e-05
1.1955561428881776318e-05
1.1946007279149997141e-05
1.1930316253867453562e-05
1.1909287892626824041e-05
1.1893847552246792439e-05
1.1883726542991714825e-05
1.1877249492050220516e-05
1.1881912175982594132e-05
1.1919472198659859972e-05
1.1963410422476148133e-05
1.1992784878896078026e-05
1.2013168369899812792e-05
1.2031088751902242824e-05
1.2054876934644646237e-05
1.2090348698187167533e-05
1.2139766075247822441e-05
1.2201637361421541715e-05
1.2270740387717226169e-05
1.2342023130548416987e-05
1.240967894755457103e-05
1.2469220619003208055e-05
1.2515670750508583428e-05
1.2546959385923850207e-05
1.2562686061345301619e-05
1.2564768402307364441e-05
1.2207727527253342932e-05
1.2202206836265242073e-05
1.2194676876122963644e-05
1.2186246395379852933e-05
1.2176825683467715631e-05
1.216533894074545128e-05
1.2148277451378852273e-05
1.2116933558016040214e-05
1.2049183676045590967e-05
1.1995584325113881643e-05
1.1924334300652721715e-05
1.1882891632802041425e-05
1.1816992391142178433e-05
1.1789295516242168598e-05
1.1447241605410232777e-05
1.1444853865605328006e-05
1.1437762394798943238e-05
1.1428690689736134258e-05
1.141573817490397094e-05
1.1404222550345647749e-05
1.1396467069507719956e-05
1.139403679605155694e-05
1.1412969416816233826e-05
1.1470191935763168176e-05
1.1517925231701519486e-05
1.1550162734728310792e-05
1.1570489092222355719e-05
1.158334063353064161e-05
1.1595291260365333597e-05
1.1612234128613188003e-05
1.1638257154993013388e-05
1.1675888001814671503e-05
1.1723151132482004968e-05
1.1776499588591381057e-05
1.1829827182934546208e-05
1.1878098815180771524e-05
1.1915955425911090989e-05
1.1940968651611801306e-05
1.1952337798780850029e-05
1.1951851567743625512e-05
1.1679640323557272084e-05
1.1672252473602123433e-05
1.1664149523161188699e-05
1.1655328434761926936e-05
1.1645235819804436857e-05
1.1632071135402228829e-05
1.1611273411096381666e-05
1.1565930849817962009e-05
1.1527076735221001192e-05
1.1472130182131997628e-05
1.1439992288409697691e-05
1.1387289566048715262e-05
1.1364041972208118703e-05
1.0995124219633200177e-05
1.0986626436775714203e-05
1.0974887206127827559e-05
1.0962982098303053111e-05
1.0954485999316664573e-05
1.094834168145240767e-05
1.0950632644165036816e-05
1.0982596299904501502e-05
1.1042879518987256077e-05
1.1090703688304888875e-05
1.1127109578172902679e-05
1.1156962440100583666e-05
1.1184329920523045296e-05
1.1212711253749001034e-05
1.1243619402528862901e-05
1.1277320302897919047e-05
1.1312163005013019145e-05
1.1345650382861553914e-05
1.1375312422081127671e-05
1.1398801696189421383e-05
1.1415630997543056664e-05
1.1425440255096203389e-05
1.1429147712546946795e-05
1.1427248868117471895e-05
1.1421312292807746222e-05
1.1218720924842502947e-05
1.1210744225547948047e-05
1.1202169219795306678e-05
1.1192569897282223502e-05
1.1180302109591444407e-05
1.1161679569847872469e-05
1.1122388899493666135e-05
1.108907363604612002e-05
1.1039120255923343204e-05
1.1009919273987255189e-05
1.0960147767952838852e-05
1.0938261245930002233e-05
1.0648062289788639829e-05
1.0639665183445549048e-05
1.0628177348304657148e-05
1.0617888696470085592e-05
1.0610699874043380024e-05
1.0607199908461966627e-05
1.0618194982969214111e-05
1.0664071260596265063e-05
1.0709161315397341735e-05
1.0741279454591834818e-05
1.0765471964206163623e-05
1.0787246533200982237e-05
1.0811010901580502984e-05
1.0839612042403387376e-05
1.0872527486682448148e-05
1.0908279689678514616e-05
1.0942682264311662702e-05
1.0972396767980022197e-05
1.0995216322277989341e-05
1.1010385878586567229e-05
1.1019273438511832466e-05
1.102293144992159133e-05
1.1022603769298612727e-05
1.1018380745442095471e-05
1.0223626696859556436e-05
1.021430564132304249e-05
1.0207281736907377595e-05
1.0203482651690799069e-05
1.0211035139482777263e-05
1.0240737517243953629e-05
1.027003949310365559e-05
1.0295785545550090447e-05
1.0319433618432737713e-05
1.0342440659491513387e-05
1.0365949565651069598e-05
1.0391465714212387038e-05
1.0420494618804996577e-05
1.0453378887461464301e-05
1.0489877887264613171e-05
1.0527276283302357339e-05
1.0562477979231150993e-05
1.0592399857054025686e-05
1.0614748270441102748e-05
1.0629268659985115358e-05
1.0636274179563391003e-05
1.0637286073088784701e-05
1.0633174748292389408e-05
9.7862005172933407162e-06
9.8041307999761303946e-06
9.8467835342406751881e-06
9.8858041688594861836e-06
9.9175363711479447103e-06
9.9416833574330266585e-06
9.9595420711993652311e-06
9.9745093247792240506e-06
9.9896805309811603351e-06
1.0008578891514239591e-05
1.0032445028742525324e-05
1.0062430763206430714e-05
1.0096922957380721829e-05
1.0133690876143938426e-05
1.0169050729873076739e-05
1.0199146029416757467e-05
1.0221607214210305377e-05
1.0235456342733625302e-05
1.0241491903196792084e-05
1.0241263451262572776e-05
1.0236628011892934964e-05
9.5195037716820727486e-06
9.5673140531006892586e-06
9.6027746748635018297e-06
9.6284764142561643675e-06
9.6474245476041517054e-06
9.6629679046974377139e-06
9.6771774773960986547e-06
9.6927688401645473924e-06
9.7107323313704368501e-06
9.7319148414391390384e-06
9.7546231428233745185e-06
9.7772619823604234437e-06
9.7990960306121923382e-06
9.8187204958157444241e-06
9.8357225483705190678e-06
9.8474991093281068931e-06
9.8534112109914005827e-06
9.2988561070450978806e-06
9.3232258252335997511e-06
9.3474421387863970706e-06
9.3732201098440677935e-06
9.399700557685776705e-06
9.4251744142717083986e-06
9.4463794025487362346e-06
9.4607668207805565685e-06
9.4685690415653158222e-06
9.4707523475418411101e-06
9.4703591030792183092e-06
9.4682045716392964209e-06
9.4653815342770993886e-06
8.9011917041169277972e-06
8.9220578165536960804e-06
8.9495371538954502196e-06
8.9846549323253073694e-06
9.0250759488633406529e-06
9.0661538056855331408e-06
9.1032270315601139282e-06
9.1315183242575375359e-06
9.1498997322551506057e-06
9.1587617211725751669e-06
9.160749865907066576e-06
9.1578969364684370894e-06
4.762671014842010296e-06
4.7463080429548262933e-06
4.7421069695801685074e-06
4.7436786354400756522e-06
4.7648098864806896806e-06
4.8507936176189373834e-06
5.1240893284641842503e-06
5.4711593160584110057e-06
5.7297727034912345867e-06
5.902116444341115134e-06
5.9995897623664061656e-06
6.0413303321152892242e-06
6.0486318655016407193e-06
6.0429911106181948596e-06
6.022060609321164459e-06
5.9480449276436184899e-06
5.7570535669989862342e-06
5.5646596501940410751e-06
5.4120166002473210141e-06
5.3030410783636668435e-06
7.3419195044426877761e-06
7.2754210832454838852e-06
7.2440734219544543644e-06
7.2378634243135183077e-06
7.2428470918122717383e-06
7.2794565639129088332e-06
7.4087178898916985722e-06
7.7596419557684334151e-06
8.1157812977638353564e-06
8.367311902868671778e-06
8.5182514709967008823e-06
8.5898923808626441976e-06
8.6074440277578747856e-06
8.6024265704749301384e-06
8.5842503744731220013e-06
8.5268168446780227132e-06
8.3619208457854846258e-06
8.1595158985429703998e-06
7.9976383000166712033e-06
7.8840294791198485173e-06
7.8176120273723717993e-06
7.7891694183173448368e-06
1.362551757190232104e-05
1.3625907965244536977e-05
1.3632597242921718048e-05
1.3649586019556990166e-05
1.3687370356144362428e-05
1.3773481733126351106e-05
1.3996791933066500384e-05
1.4375834787368468385e-05
1.4736724700699079267e-05
1.5022774629285850489e-05
1.5209562124209233513e-05
1.5307554551887863931e-05
1.5336380316915018766e-05
1.5333517639682339202e-05
1.53171803354863265e-05
1.5270853808522463394e-05
1.5141680060663969114e-05
1.4990898519613742433e-05
1.4884007990879888193e-05
1.482915744142788243e-05
1.4810894358181447174e-05
1.4804415816339672776e-05
1.4811113450580372402e-05
1.4843278728342081625e-05
1.4938936800458314178e-05
1.5144178686481829364e-05
3.0662174052646202712e-05
3.0759395710149253669e-05
3.0907353836268377882e-05
3.1134885784641677371e-05
3.1453543501515879267e-05
3.1871773246871853633e-05
3.234725084874028549e-05
3.2835739966615169597e-05
3.3271912477675430139e-05
3.3611759121865486457e-05
3.382537640722816974e-05
3.3925042753017453114e-05
3.3941702400632637931e-05
3.3923777318626682016e-05
3.3880296249756789318e-05
3.3800634141868771696e-05
3.3747288549652217364e-05
3.3716923642444836143e-05
3.3698643960622708734e-05
3.3706293038915492537e-05
3.3789889498725142003e-05
3.404734356857676736e-05
3.4392071702649641891e-05
3.476320212590605196e-05
3.5143383572705721378e-05
3.5508733699473768138e-05
3.5841232392830732402e-05
3.6127201153090232448e-05
6.3653806050502110148e-05
6.3811130779905150855e-05
6.3988398619649846017e-05
6.4191589605710496261e-05
6.4421110522523803051e-05
6.4666081199659972514e-05
6.4908094906975300257e-05
6.5121586365540014459e-05
6.528562289810704584e-05
6.5383666833686881798e-05
6.5416106882940281667e-05
6.5398019065868187257e-05
6.5356840486865857881e-05
6.5304630985216994481e-05
6.5247534303167296216e-05
6.5201382666865210407e-05
6.5164780632456179715e-05
6.515594744028506218e-05
6.5206462333378719786e-05
6.5289756738672163807e-05
6.5397473515736235096e-05
6.553187783624067576e-05
6.5684358333192657147e-05
6.5841996573750411186e-05
6.5989654584753989607e-05
6.6119417120045218331e-05
6.62251349642526885e-05
6.6304139852568159518e-05
6.6351996663066383267e-05
6.6367495184480100557e-05
9.315006793098561241e-05
9.3039210387468583596e-05
9.2919120831766585308e-05
9.2786123247736210749e-05
9.2637370793093373874e-05
9.2471785140030223231e-05
9.2290059152096509351e-05
9.2094033035351204443e-05
9.1886121520871362608e-05
9.1669541966756594811e-05
9.1449273556967915341e-05
9.1232563199610656156e-05
9.1027717531019227901e-05
9.0841013282575770152e-05
9.0674234842143350971e-05
9.052421825872884189e-05
9.0384936260400311047e-05
9.0250246658517082232e-05
9.0115854091932297179e-05
8.9979236313543806787e-05
8.9838623626197614317e-05
8.9691542631226795846e-05
8.953454614439670218e-05
8.9363922499815419561e-05
8.9178320700162368347e-05
8.8979367269930237307e-05
8.8771971112681216979e-05
8.8561378311558777753e-05
8.8351944511413113646e-05
8.8145629620318694929e-05
8.7943074388894182034e-05
8.7745145909739200507e-05
0.00010747334909913236597
0.00010714772550743147117
0.00010682394361652083501
0.00010649800644552810767
0.00010616840498496905323
0.000105837060275126629
0.00010550805195930193958
0.00010518469997925820555
0.00010486762697898740213
0.00010455452269888325617
0.00010424246116744190346
0.00010393095096736774821
0.00010362254468459785879
0.00010332086712541825601
0.00010302758553124941
0.00010274038817946971045
0.00010245489397087889627
0.0001021680405773004054
0.00010188005697995141752
0.00010159319006587703299
0.00010130994698759154913
0.00010103064321843557264
0.00010075321258660043888
0.00010047480637422633086
0.00010019387343033318047
9.9910921409845771771e-05
9.9628025831205530775e-05
9.9347192218539339911e-05
9.9069153696567662675e-05
9.879376153605352439e-05
9.8521160863990802823e-05
9.8252607056219305628e-05
9.7989872142876499584e-05
0.00014229378113449304088
0.00014150727445565367793
0.00014073788719874298354
0.00013998006923393946171
0.0001392302433032341477
0.00013849169648666871234
0.00011307090626516246978
0.00011269362302662638332
0.00011231690320614447871
0.0001119364487052457635
0.00011155145834282158539
0.00011116552710346941672
0.00011078458293810679086
0.00011041292291455349569
0.00011005077589180805588
0.00010969419932020844726
0.00010933887357092534351
0.00010898408542732871611
0.00010863281174809327626
0.00010828899380260770258
0.00010795391660468508491
0.00010762486745070054246
0.00010729717788295586899
0.00010696823550679339799
0.00010663947690363056607
0.00010631478310938690627
0.00010599700953255669156
0.00010568573305396884699
0.00010537764588482643449
0.0001050691994298086655
0.00010475882526449525249
0.00010444774244677274683
0.00010413868005955730382
0.00010383339621071140915
0.00010353207091131289756
0.00010323374419048037714
0.00010293847288887773741
0.00010264813173631570078
0.00010236455202959885596
0.00010208807790518602103
0.00013821003647296778677
0.00013741844341824544493
0.00013663396127703222199
0.00013586085419696637818
0.00013509875224269779254
0.00013435161342647880382
0.0001336262743541792922
0.00010818673782915942043
0.00010774734399559216717
0.00010729986274722258456
0.0001068491603387037057
0.00010640757483683669976
0.0001059881489115770684
0.0001055964311219196412
0.00010522790118784457766
0.00010487123784697444876
0.00010451678549794698753
0.00010416342859298542787
0.00010381816771571111184
0.00010348919566167270716
0.00010317793746119662056
0.00010287758884211906476
0.00010257840582950272692
0.00010227495087703962712
0.00010197011199051836828
0.00010167070908346611852
0.00010138073936362823212
0.00010109698066545687604
0.00010081161433490127633
0.00010051730675600463092
0.00010021286654882565132
9.9903748529424948443e-05
9.9598476572784413888e-05
9.9303297203809449468e-05
9.9020310864716805052e-05
9.8748889320653438655e-05
9.8488676743560126274e-05
9.8240558636460015513e-05
9.8004274709339401833e-05
9.7775883073195125916e-05
9.7547647729342187688e-05
9.7311783637212375319e-05
1.4949526103475748026e-06
1.4527391122702156652e-06
1.4111706917459726206e-06
1.3799088427441887556e-06
1.345735211505591449e-06
1.3200964683290563862e-06
1.2888098897086212311e-06
1.2652572246185153468e-06
1.2345483813767990633e-06
1.2120517916874942279e-06
1.1810937545874385336e-06
6.6498250572210103763e-07
6.7924270290354052078e-07
6.9115724030144817e-07
6.9792776110051055183e-07
7.0084950800355599759e-07
7.0143204935129746153e-07
7.0111431736633454905e-07
7.0046788177413375925e-07
6.989758886519703542e-07
6.9494611644272718605e-07
6.8960355667894742769e-07
6.8489967911742862319e-07
6.8089837484971480604e-07
6.7777429110700727521e-07
6.7578506744800439878e-07
6.7490794733342744277e-07
6.7490409070259540857e-07
6.7811562903561473077e-07
6.9084883498307588938e-07
7.0407018909655723114e-07
7.1091413840505791185e-07
7.1293042814432756798e-07
7.1262810716119964564e-07
7.1179848618644584336e-07
7.1037609860620064132e-07
7.0888454689034010612e-07
7.0661798347976851339e-07
7.0186412124132231343e-07
6.9168951358523798813e-07
6.7977365131789756713e-07
6.6768189070049585776e-07
6.5640325555067467772e-07
6.4686505097913828207e-07
6.3959807442328828893e-07
6.3455111667759835217e-07
6.313749481607300842e-07
2.1758140313802209775e-06
2.1661592914609777082e-06
2.1450000713325160676e-06
2.0916900998399885975e-06
2.0133261096710631331e-06
1.9331820029996552741e-06
1.8494957612064348596e-06
1.7723221524986652916e-06
1.6981821240353177324e-06
1.6360581510166581899e-06
1.5793488884911985953e-06
1.5353637893905185966e-06
1.4949968131916601167e-06
1.4645376137505485695e-06
1.4335301194534694719e-06
1.4098284768620326263e-06
1.3809042005075772667e-06
1.3588145222820795157e-06
1.3277870504944324537e-06
1.3053713216486348249e-06
1.2708561052260395217e-06
6.9405147844470141522e-07
6.9353210797954099187e-07
6.9444767737016718077e-07