/*--------------------------------*- C++ -*----------------------------------*\
  =========                 |
  \\      /  F ield         | OpenFOAM: The Open Source CFD Toolbox
   \\    /   O peration     | Website:  https://openfoam.org
    \\  /    A nd           | Version:  12
     \\/     M anipulation  |
\*---------------------------------------------------------------------------*/
FoamFile
{
    format      ascii;
    class       volScalarField;
    location    "0.0135";
    object      p;
}
// * * * * * * * * * * * * * * * * * * * * * * * * * * * * * * * * * * * * * //

dimensions      [1 -1 -2 0 0 0 0];

internalField   nonuniform List<scalar> 
106891
(
99812.50796001747949
99803.716513721388765
99800.166070197781664
99802.704712651335285
99811.166536389631801
99824.282533055986278
99839.925362849025987
99855.599835211280151
99868.879681416336098
99877.824787586068851
99881.325788953516167
100050.88709046397707
100060.0208289695147
100070.53060896741226
100078.07574296850362
100080.91699694872659
100080.55423278626404
100081.21252473614004
100087.20138518261956
100100.30590531062626
100118.07683730399003
100134.16513659496559
100141.69098773456062
100137.47222729571513
100124.83969195927784
100112.19476109425887
100108.20191884624364
100117.15981188172009
100136.35501778479374
100158.8947864916845
100178.50931267703709
100193.86621105244558
100208.05540704907617
100224.38859874637274
100242.51918887918873
100257.99689416088222
100265.35501826989639
100262.09134592671762
100250.17295028915396
100234.30821920430753
100219.78153311391361
100209.88361875071132
100205.94796817672614
100207.5832138631813
100213.58337390350061
100222.15441505996569
100230.61175006096892
100236.1569203495601
100237.57656936481362
99840.652136844873894
99842.303624000865966
99845.158444163098466
99847.407938856908004
99847.246262407978065
99843.300218387739733
99835.076446128514362
99823.162562628189335
99809.11426361296617
99795.207954776604311
99783.975294677133206
99777.592875669171917
99777.417129097375437
99783.746148155769333
99795.73763760041038
99811.513040477831964
99828.578014513768721
99844.340727885311935
99856.537537849289947
99863.700227064517094
100053.91361159464577
100054.49813586450182
100053.76732604308927
100052.31970318876847
100052.57378699690162
100057.91268417898391
100070.68564018806501
100090.55785739161365
100113.36600705393357
100132.01815387497481
100139.53304600730189
100133.45577124858391
100118.40359540916688
100103.85735849128105
100099.49137908447301
100109.3488464270049
100130.04638233936566
100153.67944593286666
100173.26869663351681
100187.18230528711865
100198.96745557684335
100213.05716247775126
100230.38908087056188
100246.89359648086247
100256.81312134659674
100256.52306451808545
100246.56757588652545
100231.06355157814687
100215.38889646049938
100203.71760335371073
100198.26200183753099
100199.30000534393184
100206.19017889429233
100217.33227967214771
100229.57774188100302
100239.3754558020446
99804.85316162246454
99806.201141677011037
99809.917917460974422
99814.21139194702846
99816.998530144206597
99816.470352739197551
99811.5892017394508
99802.442313544495846
99790.270677284090198
99777.180595521218493
99765.698885813792003
99758.217416261875769
99756.429805186140584
99761.002339042519452
99771.519663217099151
99786.511597041346249
99803.70906051484053
99820.587530659366166
99834.837753706378862
99844.899523296189727
100058.3874467194255
100045.51665433458402
100035.03020316723268
100030.02904148412927
100032.89466888703464
100044.59372713159246
100064.34987028856995
100089.00770024053054
100112.81411129565095
100129.40178775078675
100134.03641770708782
100126.14246066575288
100110.89197070978116
100097.45503036110313
100094.57020167775045
100105.16241123735381
100125.76387878473906
100148.72260413199547
100167.46429189039918
100180.06423930356686
100189.40154484563391
100200.1669596057327
100214.39654785919993
100229.7961859897041
100241.20522915759648
100244.45833378865791
100238.47995924997667
100226.19951143806975
100212.19147100295231
100200.63222415623022
100194.39981983223697
100194.67414880072465
100201.40492071918561
100213.64741537410009
100228.49538711266359
100241.51257202970737
99768.572011945245322
99771.442127142785466
99776.03592073766049
99780.416992387821665
99782.622392254794249
99781.272770644238335
99775.977670980399125
99767.466794718246092
99757.400701456223032
99747.939916319039185
99741.280700245260959
99739.189023679311504
99742.575780465689604
99751.354228755328222
99764.514427340909606
99780.311568767778226
99796.618490599445067
99811.280997627327451
99822.874732436495833
100045.84178025719302
100025.48396283149486
100017.99894079797377
100024.75049398135161
100043.45787567111256
100069.12860444601392
100095.60798469238216
100116.21371649409411
100126.08020307545667
100124.06989337413688
100113.29190285490768
100099.61873978341464
100090.45194636442466
100091.3587837467785
100103.42431384688825
100123.10510580895061
100144.10940951356315
100160.95286732491513
100171.81164245419495
100178.47820140916156
100185.1966458428069
100195.06867365006474
100208.11564668992651
100220.57209339451219
100228.12200890274835
100228.15729701856617
100221.48142497809022
100211.22130148852011
100201.25844576067175
100194.75415856338805
100193.9405103737663
100199.58900161490601
100211.34668305068044
100226.39444066425494
99736.877744300669292
99734.386171352511155
99734.997634041501442
99737.967690538163879
99741.989078793427325
99745.459803419478703
99746.925377261490212
99745.612550663950969
99741.62830804537225
99735.916729161457624
99730.033471347676823
99725.700180792729952
99724.379403856160934
99726.986286875238875
99733.700625064142514
99743.960616038792068
99756.651903438541922
99770.35958203356131
99783.458190724995802
99794.877540408022469
100058.61133889126359
100029.94234272104222
100020.80206518949126
100031.33574997760297
100055.70738313837501
100084.85396056923491
100109.59295716386987
100123.3370748917223
100123.26476078436826
100112.08194308474776
100096.67505331328721
100084.28008750283334
100080.14138681175245
100086.04366600552748
100100.53264771898102
100119.351743345469
100138.01154035600484
100152.45307292725192
100161.30884450944723
100165.71190018834022
100169.12052604938799
100175.11471337506373
100185.67839979773271
100199.03365832839336
100211.01543978923291
100217.6520063180069
100217.34159546106821
100211.73211173876189
100204.10484916252608
100197.92042964264692
100195.76168184362177
100199.21374774833384
100208.11880717556051
99709.881155546434456
99707.911967035019188
99708.391224600098212
99710.659337574339588
99713.713076438478311
99716.438338989726617
99717.940944339745329
99717.869178953988012
99716.448322641706909
99714.389323084687931
99712.687290638379636
99712.315225991565967
99713.991287951925187
99718.050927627671626
99724.376933324034326
99732.488946466852212
99741.77459730800183
99751.431541915779235
99760.950486554720555
100052.72529115095676
100042.70334206115513
100055.18347498580988
100081.46734262633254
100109.63601546062273
100129.05260134337004
100133.49023005817435
100122.73682721381192
100102.21887543714547
100080.89301645974047
100067.30641875953006
100065.49953434491181
100074.8209303637268
100091.40535798030032
100110.32775971016963
100127.62903801185894
100140.50571662127913
100148.24479318963131
100151.75517975827097
100153.66161643373198
100157.7082160665741
100166.90126576424518
100181.13877214981767
100196.56485029647592
100208.35051580045547
100213.17542273818981
100211.19996518323023
100205.05308406306722
100198.55418504893896
100194.7651379040326
100195.08876808070636
100198.90788493319997
99698.642400815035217
99695.18830168985005
99693.727194225910353
99694.242589496701839
99696.297719480455271
99699.23514719902596
99702.252654807103681
99704.661375334733748
99706.122371670149732
99706.620761752099497
99706.439881313403021
99706.080379042570712
99706.01720865588868
99706.602756895255879
99708.138273161966936
99710.822719658477581
99714.791219704333344
99720.020236761542037
99726.595247875608038
100086.12042684550397
100096.62632977576868
100118.39137858829054
100139.90551499220601
100150.7973236348771
100145.68193010696268
100126.24059534471598
100098.93833928016829
100072.25713936002285
100054.55239810915373
100050.06034599222767
100057.73779649098287
100073.43764483321866
100092.18336069985526
100109.47557209350634
100122.9554982563277
100131.67516279795382
100136.58944758721918
100139.83466383061022
100144.99292809095641
100154.71746778233501
100169.35337539105967
100185.46275714351214
100198.15434924258443
100203.90172928803077
100202.26529365418537
100195.9669311724283
100188.87411143934878
100183.29238166401046
100179.85241367660637
99695.535686014540261
99694.300086375180399
99694.821166012683534
99697.045876094765845
99700.498711149703013
99704.458370278021903
99708.08287276980991
99710.636277737052296
99711.681186736677773
99711.060122078226414
99708.887341149398708
99705.559514120366657
99701.690093299592263
99698.005060680487077
99695.249601752060698
99694.169633446683292
99695.260475892544491
99698.929382869624533
100148.8152056777617
100160.64917749565211
100170.27305013262958
100170.97250385733787
100159.11951941686857
100135.38649901546887
100104.79822661289654
100074.24689162085997
100050.78124169797229
100039.14954673459579
100040.21881250257138
100050.98926985499565
100066.87098948638595
100083.42732738265477
100098.23094463457528
100109.94750487740384
100119.24046396483027
100127.52287064721168
100136.96799585020926
100148.7011177566892
100162.38910667224263
100174.97485694530769
100183.1529778426775
100184.45595350336225
100179.51749967187061
100170.93312915858405
100162.34623326610017
100154.50198243836348
99703.509892833506456
99705.104604799475055
99708.347295587838744
99712.993997286685044
99718.451960281279753
99723.780434992615483
99727.926654850904015
99729.949443912511924
99729.230601520408527
99725.613630036779796
99719.393161964035244
99711.251012041640934
99702.199255743791582
99693.416594180613174
99686.054067194243544
99681.132411854079692
99679.275261712042266
99680.878041028074222
100194.79832058103057
100193.30524501416949
100186.31293085702055
100172.03037271178619
100149.74746967440296
100120.45929368564975
100088.44763885045541
100059.91405756426684
100040.04514267673949
100031.09990976945846
100032.14541797380662
100040.24677922407864
100052.27501510038564
100066.19587168037833
100080.95431886175356
100096.26741880687769
100111.91420095159265
100127.31610325149086
100141.46709510563232
100152.66071538307006
100158.86720609510667
100158.61765061193728
100151.98353660553403
100140.91518242532038
100128.55888535751728
100116.86401337408461
100106.63852153798507
99722.147297907766188
99730.641739737882745
99740.405980365554569
99749.942768963432172
99757.666848534776364
99762.124973581958329
99762.287761605708511
99757.745562736847205
99748.791545601779944
99736.416357832975336
99722.080096962337848
99707.402388605565648
99693.934815740401973
99682.961881304494455
99675.41291029790591
99671.74704307281354
99672.089200449627242
100214.49711944760929
100208.50672631435737
100203.37544389000686
100196.12738097347028
100183.98658948845696
100165.17383342495305
100139.98121095195529
100110.88498731046275
100081.450386924349
100055.81535136600723
100036.56709308503196
100024.42065631483274
100019.42459689882526
100021.8024039305019
100031.30486592826492
100046.94641101112938
100066.52088944874413
100087.33396983268904
100106.57234271839843
100121.64806606261118
100129.90800767247856
100130.16896525534685
100122.3638250403892
100108.41989192733308
100091.26293606506079
100074.33226247836137
100059.23612586605304
99760.810080431780079
99776.380720530563849
99790.870106098576798
99801.616859386718716
99806.550576376117533
99804.524191178861656
99795.516065688614617
99780.628333626402309
99761.813187016101438
99741.437988868769025
99721.783982621360337
99704.650824568161624
99691.206069965483039
99682.01324493996799
99677.12298621305672
99676.273637687787414
100197.67110099690035
100195.45010127974092
100196.07324951943883
100194.28813853720203
100186.02489362633787
100170.06114426869317
100147.92594307677064
100123.81028666217753
100100.31204225828697
100077.24024877855845
100054.31375962040329
100033.00709201047721
100016.72981573900324
100009.06504532546387
100011.55163104059466
100022.92316976406437
100039.39429193917022
100057.1770489600749
100073.47899544681422
100086.10730446240632
100093.09872583989636
100092.77143649662321
100084.20854610543756
100068.87496827350697
100049.38669986824971
100029.49994890771632
100011.93099322925264
99997.965732771146577
99811.507825799970306
99828.120565491248271
99839.824691711342894
99844.389177640041453
99840.764360138171469
99829.277336493876646
99811.516406648253906
99789.904163954270189
99767.123581863634172
99745.648568728167447
99727.385494542366359
99713.41905826178845
99704.009094662236748
99698.831525224246434
99697.224725156716886
100171.84570370601432
100178.96161277023202
100182.49558943501324
100177.21082504488004
100162.951523571086
100144.42143655424297
100126.30748355292599
100109.87070107510954
100092.56977072048176
100071.55623207749159
100047.67047931652633
100025.59077984983742
100010.86497813899769
100006.08303569963027
100009.82336023781681
100018.19284075748874
100028.036079721438
100037.82930297814892
100046.58872050842911
100052.92346789747535
100054.30161168960331
100048.67903744416253
100035.75861615102622
100017.85181509271206
99998.110372862996883
99979.733464036296937
99965.079649616425741
99855.971484556168434
99867.145834243419813
99870.840878825692926
99866.245813236673712
99853.976218230920495
99835.793217454804108
99814.193771546692005
99791.893515762698371
99771.322646773638553
99754.249421740852995
99741.526508579830988
99733.10319536953466
99728.414952420338523
99726.593160261923913
100155.52253940395894
100161.96295915040537
100158.01451220408489
100145.48133817702183
100131.05167367747345
100119.70010890667618
100111.2462718787865
100101.48414225975284
100085.96133453705988
100064.63086903712247
100041.80467139331449
100023.02416175762482
100011.12613384847646
100004.97303808366996
100001.75478119689797
100000.23265667924716
100000.96320190439292
100004.4335792336351
100009.8044451137248
100013.87192529000458
100012.86505315967952
100005.03436209989013
99991.311464373167837
99974.260769135929877
99957.138381370197749
99943.238683550938731
99886.995399300125428
99889.644968676802819
99884.680736005771905
99872.876204561718623
99856.090081171991187
99836.746327869041124
99817.317383419678663
99799.907857977741514
99785.916462733832304
99775.852842656211578
99769.421336912288098
99765.906662972818594
99764.322782172690495
100135.17947143166384
100130.98875087151828
100120.50889736159297
100110.57431805043598
100105.90536481975869
100105.21381085881148
100103.09068572454271
100094.49083225303912
100078.77593750640517
100059.08877414869494
100039.5509248575836
100022.36548060274799
100007.02382181576104
99992.444136758320383
99979.313198134841514
99970.002521469694329
99966.990297926167841
99969.928998097399017
99975.430993881964241
99978.839056700337096
99976.94446172156313
99968.902446486667031
99956.334280806404422
99942.438907741714502
99931.219858598502469
99900.851330867793877
99896.138520384760341
99885.919015113133355
99871.94365033863869
99856.393653988052392
99841.398977594770258
99828.628270648550824
99818.986949638710939
99812.571682502355543
99808.8385755430063
99806.957448564950028
99805.897915354798897
100100.70004018495092
100092.40078479261138
100087.16803056972276
100088.13953344209585
100093.48373215582978
100097.83142802881775
100095.99815057526575
100086.51418743665272
100071.45744012629439
100053.58943658068893
100034.35604065209918
100013.45969299333228
99990.891857303329743
99968.549178187487996
99950.432519330192008
99940.357506033527898
99938.662466683046659
99943.096776371021406
99948.847387548637926
99951.788920332444832
99949.491596612380818
99942.222252459338051
99933.227935982169583
99926.265429724735441
100065.67995401838562
100063.76320022581785
100068.53790473224944
100077.9528235669859
100086.96913218172267
100090.71770844554703
100086.7517621723382
100076.14511243502784
100061.16240674695291
100042.93533463524363
100020.95289895561291
99995.25683364350698
99967.832108869435615
99943.220185501369997
99926.056599566116347
99919.073963012429886
99920.247552857996197
99925.910183802654501
99931.16894375695847
99932.781697266953415
99930.572757744768751
99926.863673290106817
99925.054824334336445
100048.69639969889249
100060.05026501048997
100072.17378370760707
100079.87332146934932
100080.01088335695385
100073.11482577549759
100061.44125304183399
100046.26091218799411
100026.96036242559785
100002.78284634540614
99974.779716290271608
99947.205763556878082
99925.177196032251231
99912.396361973660532
99909.054601780604571
99912.041798995502177
99916.855900275870226
99920.163859020685777
99921.450417843385367
99922.197455934147001
99925.330703870858997
100068.4278114826302
100064.27541345033387
100055.53851189953275
100044.32833386857237
100030.10036770145234
100010.91068350731803
99986.320015481105656
99959.276995799446013
99934.825556695126579
99917.621222357542138
99909.550543297955301
99908.779934656704427
99911.003717968706042
99913.371823202163796
99915.552441498250118
99918.892164580116514
99925.907324919870007
100029.77397578644741
100017.49987872781639
99998.883444581180811
99975.27282829140313
99951.261710596139892
99932.133884758339263
99920.630335968031432
99915.584114667217364
99913.920402756994008
99913.584865304030245
99914.184798294954817
99917.949575386926881
99926.520118858854403
100020.66701879259199
100009.34911268917494
99991.537331109400839
99970.905064487742493
99952.416345869496581
99939.069953616082785
99930.454478041239781
99924.713226573279826
99920.262941953609698
99917.885551388375461
99919.865966194629436
99927.686566250806209
100309.26617830201576
100298.6736764608213
100298.25406785038649
100297.28261196189851
100288.04654586354445
100271.59394519237685
100255.30495529054315
100246.32091207780468
100245.85495280675241
100249.12145435455022
100249.99589082507009
100245.58425574927242
100237.6256114616117
100230.57570270508586
100229.02450792788295
100235.27319351084589
100248.28524074294546
100262.78896261772024
100271.37279563884658
100268.14854442706564
100344.41774151433492
100313.36669403333508
100299.35463399965374
100297.41806894469482
100295.59352237921848
100284.98034771520179
100265.80644611886237
100246.40376856266812
100235.45893069458543
100234.86512938186934
100238.99169029723271
100240.3308353661705
100235.298134779674
100226.67701953665528
100220.75152078781684
100222.88288662860577
100234.16282752792176
100251.18027101161715
100266.94032532691199
100274.34026447618089
100269.42477643046004
100252.87063950799347
100435.55623797309818
100396.71564913542534
100352.08811858194531
100316.93014649201359
100299.85949799294758
100296.65287465823349
100294.20696503417275
100282.32979569258168
100260.55688226857455
100238.15669790630636
100225.34897617060051
100224.77169562639028
100230.00849575512984
100231.97762173431693
100226.47404743997322
100217.20736667061283
100212.22017038536433
100217.63960272619443
100233.55168516881531
100254.0731298437895
100270.78834341320908
100276.87675009477243
100270.2457835283567
100253.39360549217963
100231.56128119703499
100210.56274735210172
100467.43176177942951
100447.37094485427951
100406.73180250590667
100358.60465786281566
100319.68785350982216
100300.02896510763094
100295.90391149898642
100293.17200034200505
100280.11213368104654
100255.92056721374684
100230.75954999093665
100216.28496140976495
100215.86406091156823
100222.37841718751588
100225.04830442804086
100219.1529895872809
100209.24168477694911
100204.9842973100458
100213.26061821075564
100233.25249323545722
100256.89745884457079
100274.3009252800839
100279.05256522196578
100270.78292378634796
100253.70138084414066
100232.8945145089674
100212.53796378994593
100195.25161826598924
100473.30326728022192
100477.10633704031352
100457.6529291990737
100415.30962377307878
100363.89708303708176
100321.68235681658552
100299.93164728730335
100295.22106746067584
100292.45732883678284
100278.33120650336787
100251.8567350305384
100224.08584767697903
100208.09623865090543
100208.03561583581904
100215.96623693685979
100219.4561634753627
100213.1709490094654
100202.58899955645029
100198.81843924008717
100209.57455913680315
100233.13676323484106
100259.56162221632258
100277.53229567283415
100280.98997692661942
100271.21865920307755
100253.94121366947365
100234.13899475101789
100214.41227888221329
100196.11033530830173
100182.06848103080119
100460.99553352642397
100479.36734854384849
100485.40852185330004
100466.40489925447037
100422.35690094983147
100367.85922543857305
100322.74198216601508
100299.38535333341861
100294.51915646527777
100292.05085148771468
100277.16380829711852
100248.62855218119512
100218.52950425501331
100201.25811678203172
100201.67802154895617
100211.00333577497804
100215.31916015264869
100208.55019976828771
100197.17595975019503
100193.630909524858
100206.46769153814239
100233.14273708437395
100261.94724864048476
100280.37607733195182
100282.66898119002872
100271.56441492901649
100254.07805353617005
100235.22573633145657
100216.13967125152703
100196.8774977226276
100180.56624840962468
100173.87167145455896
100463.07794047857169
100484.16313385563262
100492.03870785745676
100473.29971913780901
100427.75523828831501
100370.67711274158501
100323.26895810409042
100298.75911382355844
100293.997811757421
100291.94885224007885
100276.47544635555823
100246.06347452331102
100213.91085214268242
100195.65335100064112
100196.63760010013357
100207.28550468871254
100212.37742993557185
100205.17918150637706
100192.98708895212621
100189.56798797944793
100204.04842750835815
100233.28795713228465
100264.04615120439848
100282.8417156698124
100284.15036717310431
100271.88584566631471
100254.18732417136198
100236.15612709759444
100217.60670036170632
100197.49481856868078
100179.20980401692213
100170.90256879126537
100179.99284627831366
100080.1069368639146
100093.35937478789128
100097.74932663976506
100087.96400635551254
100062.87840843953018
100035.98173494574439
100464.43810028035659
100487.50404925103066
100496.76367276020756
100478.10603331352468
100431.38493272344931
100372.30417651913012
100323.16517598036444
100297.99033926268748
100293.58162089715188
100292.0055333202763
100276.17775477745454
100244.41894395413692
100210.74190563976299
100191.87319000570278
100193.27960990960128
100204.95921794457536
100210.60740751819685
100203.08211044303607
100190.13745763576298
100186.7345288288343
100202.29764405915921
100233.36621703609126
100265.56744164203701
100284.64618144746055
100285.21379094250733
100272.09918394850683
100254.24320116052695
100236.77576592258993
100218.64343430455483
100197.93973296659533
100178.1935453407059
100168.73459660014487
100177.72243355704995
100204.56878152009449
100055.03654799936339
100082.32113558660785
100095.68186692679592
100099.62340932618827
100088.51866589814017
100061.66116682560823
100034.11671734467382
100465.13517227406555
100489.32325109408703
100499.33248579553037
100480.59697818281711
100433.13126059786009
100372.94455814787943
100322.98955892013328
100297.57755940376956
100293.45119302267267
100292.16324080986669
100276.07144546337076
100243.4857360352471
100209.02537504109205
100189.89200298330979
100191.56632270320551
100203.87149853348092
100209.77347627282143
100202.033665031704
100188.61371280762251
100185.2046219285694
100201.4126009154279
100233.50670879665995
100266.52644413370581
100285.72946855587361
100285.84798432298703
100272.25945736590074
100254.31319864081161
100237.1108802951203
100219.16845128424757
100198.1192443643522
100177.55953716064687
100167.50424386173836
100176.52872926663258
100204.20712980275857
100237.3130348843988
99752.302777628938202
99733.954905441147275
99716.780234264719184
99702.132813406860805
99691.337499636370922
99685.536870299081784
99685.50742518476909
99691.492332633992191
99703.156352266916656
99719.542912998978863
99739.114582126552705
100009.74617396178655
100010.5020800918719
100010.96441860735649
100015.28832036905806
100024.46036035254656
100036.24922870798036
100047.73463565610291
100057.53887149166258
100066.38994419426308
100075.72739558035391
100085.50141722289845
100093.90299834153848
100099.40867789962795
100102.63092051525018
100106.21447717773844
100112.93185941249249
100122.17022370613995
100129.59005595387134
100129.86327630210144
100120.92573013127549
100106.41282550757751
100094.18789353242028
100092.63276398039307
100106.02134229564399
100132.43821640079841
100164.21125858719461
100191.75753278002958
100207.49619022705883
100208.48180411341309
100196.5702990272548
100177.29576304394868
100157.52865736086096
100143.29209550100495
100137.93231072503841
100141.62641275019269
100151.23847536229005
99804.248251392098609
99799.918542142579099
99796.356865614681737
99792.781796493422007
99788.495083394824178
99782.949492636471405
99775.713794173992937
99766.477647839012207
99755.168167783514946
99741.965667980039143
99727.369384526347858
99712.313911009172443
99698.068102728531812
99686.030463862553006
99677.601887410317431
99674.02106716389244
99676.129727454288513
99684.133159726523445
99697.586274515997502
99715.363301475750632
99735.781282558091334
99998.021420645716717
100005.33874246412597
100019.31879681545252
100039.33512636144587
100061.4337646758795
100079.40164952768828
100089.31231504584139
100091.552850454289
100089.78187259634433
100088.40728019547532
100089.68594677528017
100092.22472929664946
100093.6432119950332
100092.9246430156345
100092.4085925182153
100095.44540863046132
100103.10398503580655
100112.87271604941634
100120.06714206101606
100120.74883617482556
100115.40026215052058
100108.4641751057643
100106.56013143739256
100114.05604212134494
100131.2160656437336
100153.375176355039
100173.58819727128139
100185.41746153804706
100185.46302443124296
100174.42288234768785
100156.74650121876039
100138.76657630367845
100126.73570967637352
100123.95036365426495
100130.24627770599909
100142.09820408490486
99783.606529659315129
99774.000885516128619
99765.837563175125979
99758.863155959741562
99752.728908368721022
99746.913061982253566
99740.807181687821867
99733.790761117474176
99725.362575307459338
99715.305025299705449
99703.800144783963333
99691.545269052759977
99679.751473667784012
99669.955159959688899
99663.721198846818879
99662.357478849662584
99666.6796151130402
99676.774779615778243
99691.984145211346913
99710.889814371388638
99731.628486711444566
100013.83924689030391
100041.10301259921107
100074.72752225260774
100105.99679664762516
100126.2722798249597
100131.72635036279098
100124.2747005263227
100110.63497526088031
100098.31064030568814
100091.23640212572354
100088.37929524497304
100086.53982042634743
100083.57434553520579
100080.56281674528145
100080.74917594375438
100087.17144930851646
100099.29137213721697
100113.11310468394367
100123.39035522393533
100127.30462055807584
100125.51819902942225
100121.77843055948324
100120.56012671334611
100124.7779968567047
100134.13765336049255
100145.25292171366164
100153.20297479753208
100153.55084062169772
100145.24892417977389
100131.07329123074305
100116.50858898824663
100107.48703230441606
100107.42644124988874
100115.93769356087432
99753.194844782337896
99741.716283047717297
99732.356219642970245
99724.968708972373861
99719.113382507202914
99714.035149178525899
99708.772837567914394
99702.406485906089074
99694.373040587190189
99684.68758642640023
99674.032830694923177
99663.712701861804817
99655.417591511737555
99650.852605568186846
99651.369621840887703
99657.69651873485418
99669.693885444721673
99686.42249251913745
99706.172906907318975
99726.878310531596071
100037.02047951352142
100073.44360297477397
100113.59277728745656
100146.53000855360006
100163.83640592075244
100162.16101453753072
100145.16478228651977
100121.88544462282152
100101.44804135531012
100088.65264406216738
100082.73727580207924
100079.68395303720899
100076.60055320480024
100073.23323028707819
100072.16200138123531
100077.07217448209121
100089.33454085400444
100106.52493517198309
100123.3518732705561
100134.49119865195826
100137.19025742472149
100132.00927868690633
100122.92581134854117
100115.13581325816631
100112.38820771800238
100114.67064258434402
100118.59779800444085
100119.38435402707546
100114.30797721243289
100104.39947012922494
100093.95387798492447
100088.05253704174538
100089.9298880553979
100099.19552959848079
99737.963052755687386
99724.84852675026923
99714.416982261827798
99706.700505797954975
99701.211340269699576
99696.981851882796036
99692.768686511248234
99687.414034980771248
99680.231804193157586
99671.279536318397732
99661.361511916693416
99651.903718014902552
99644.696604279626627
99641.505108795725391
99643.644431964290561
99651.649490389681887
99665.122007310783374
99682.860772178493789
99702.918979178837617
99723.125833589554531
100107.65848282673687
100144.37995118014805
100170.54168484346883
100179.32977063269936
100170.22986930589832
100148.13496891332034
100120.93699834667495
100097.06166680378374
100081.78697457906674
100075.01548046321841
100072.85905873283627
100071.66142914738157
100070.09633833976113
100069.41615351846849
100072.55158016836504
100081.90582451062801
100097.36185705912067
100115.3842356185778
100130.35134266600653
100136.94218646937225
100133.0589295202517
100120.99745789844019
100106.52599444887892
100095.66065108339535
100090.90422130314982
100090.52148574919556
100090.48557928502851
100087.48205328710901
100081.22438179622986
100074.54174339606834
100071.14830216165865
100073.50460397818824
99715.08380988027784
99704.325112480451935
99696.235472818952985
99690.334150074209902
99685.628599045638111
99680.926822168636136
99675.171026643627556
99667.764235915208701
99658.878871596374665
99649.510329711687518
99641.194946545714629
99635.629902076849248
99634.34567748689733