/*--------------------------------*- C++ -*----------------------------------*\
  =========                 |
  \\      /  F ield         | OpenFOAM: The Open Source CFD Toolbox
   \\    /   O peration     | Website:  https://openfoam.org
    \\  /    A nd           | Version:  12
     \\/     M anipulation  |
\*---------------------------------------------------------------------------*/
FoamFile
{
    format      ascii;
    class       volScalarField;
    location    "0.0135";
    object      p_0;
}
// * * * * * * * * * * * * * * * * * * * * * * * * * * * * * * * * * * * * * //

dimensions      [1 -1 -2 0 0 0 0];

internalField   nonuniform List<scalar> 
106891
(
99812.184928530012257
99803.672877586723189
99800.474368991577649
99803.381008135576849
99812.159360919307801
99825.481507224641973
99841.18810161507281
99856.780775352934143
99869.853113072036649
99878.504156902679824
99881.673179456149228
100050.74267011602933
100060.04498584642715
100070.53715381347865
100077.92829311873356
100080.60879983876657
100080.21535162480723
100081.03146337468934
100087.31784916071047
100100.71436674322467
100118.59629837532702
100134.520547072927
100141.66763116524089
100137.06100129139668
100124.27279162871127
100111.82764770215726
100108.29948468174553
100117.76347213356348
100137.26974804002384
100159.85286098222423
100179.35825958105852
100194.63757082234952
100208.87601536049624
100225.30448927768157
100243.40896835728199
100258.65361938018759
100265.62304395843239
100261.9795229811134
100249.83914070253377
100233.97187831781048
100219.60706061648671
100209.95590398395143
100206.27125261195761
100208.12323551876761
100214.28611127090699
100222.93125146559032
100231.35442463694199
100236.7745361294219
100238.06473235443991
99840.881862607246148
99842.643498021992855
99845.520527336731902
99847.691034947507433
99847.36049145362631
99843.192496748437406
99834.750974886061158
99822.682489556769724
99808.591917459241813
99794.786328930931631
99783.795728343044175
99777.759922519660904
99777.976559490693035
99784.676058919460047
99796.949989331726101
99812.871450264268788
99829.928512117097853
99845.541833916606265
99857.483095791438245
99864.332258810114581
100053.66663908064947
100054.24109154609323
100053.47026082222874
100052.04072936430748
100052.4358389377303
100058.04999137084815
100071.15460873561096
100091.27530850691255
100114.11117240444582
100132.50210534733196
100139.5466438774165
100133.02397783607012
100117.81549422170792
100103.50738019753771
100099.6581783129659
100110.05302017083159
100131.06018146558199
100154.70041450561257
100174.12858700682409
100187.9132099263079
100199.72684956622834
100213.93871098286763
100231.31653025945707
100247.64825612181448
100257.20954449153214
100256.52334789933229
100246.29126475199882
100230.71902034002414
100215.17361191220698
100203.75158244618797
100198.58523107864312
100199.90145528753055
100207.02270553112612
100218.30431881145341
100230.55118018132634
100240.21522779882071
99804.932907143607736
99806.464634771298734
99810.288253968945355
99814.578131387374015
99817.249175996214035
99816.521846076691872
99811.412807242479175
99802.074922977626557
99789.807695033887285
99776.756562359383679
99765.458566634581075
99758.280758002540097
99756.865230463197804
99761.816050515481038
99772.653775887883967
99787.851035626532394
99805.106634986688732
99821.899252576040453
99835.949410968256416
99845.739307834723149
100057.73050845738908
100044.91304424234841
100034.59333589702146
100029.86570406028477
100033.06265644103405
100045.11006426147651
100065.14794188844098
100089.92507809834206
100113.62176075932803
100129.87447176090791
100134.05115309089888
100125.76755147024232
100110.41897928404796
100097.2367495047074
100094.84772127773613
100105.93402137447265
100126.80640679552744
100149.75604191196908
100168.31753893132554
100180.7530911367503
100190.07246190057776
100200.9390899095888
100215.25818379952398
100230.58097979440936
100241.72862596374762
100244.63244321472303
100238.37391931685852
100225.97550342755858
100212.0337430183863
100200.67663925909437
100194.71618073662103
100195.28431285968691
100202.28359959844965
100214.72470031422563
100229.62096354115056
100242.48034087363339
99768.648046550573781
99771.682286975890747
99776.35244385880651
99780.701244158146437
99782.77835848047107
99781.246480585803511
99775.772425075949286
99767.145217158977175
99757.06869491544785
99747.720358107588254
99741.287686815077905
99739.500950039655436
99743.216342082901974
99752.291282842939836
99765.668246567976894
99781.567142871994292
99797.849314617764321
99812.37928608492075
99823.767823210044298
100044.86923829707666
100024.94356911878276
100018.00894936095574
100025.28290178354655
100044.36394978134194
100070.1909683750273
100096.59419912908925
100116.90693935478339
100126.36752186680678
100123.99130115986918
100113.00939170659694
100099.38356784745702
100090.50487527612131
100091.83024038899748
100104.26865315994655
100124.13727339361503
100145.09886241758068
100161.75879268154677
100172.43103248055559
100179.02825917924929
100185.81652538476919
100195.81556832000206
100208.90180795759079
100221.24192126822891
100228.54770302210818
100228.32291327076382
100221.47442793380469
100211.18796903079783
100201.33824524146621
100195.04452152343583
100194.50041962890828
100200.43119713659689
100212.40422273331205
100227.49976504688675
99736.586940900655463
99734.28335932578193
99735.071141054402688
99738.166916894449969
99742.237858538486762
99745.672766815303476
99747.037239421668346
99745.599700456456048
99741.512004979813355
99735.757863542938139
99729.916768272363697
99725.711823827412445
99724.587103371100966
99727.423925707364106
99734.361380951522733
99744.801242644229205
99757.601906548938132
99771.332669103343505
99784.371367990694125
99795.668368646976887
100057.3501700341003
100029.34643300896278
100020.99356232481659
100032.19538646897126
100056.9267121275916
100086.07195344110369
100110.50777091750933
100123.77755180672102
100123.24866955571633
100111.80899879831122
100096.43085140205221
100084.28095583959657
100080.50828661458218
100086.76116689688934
100101.48027412731608
100120.36565876771056
100138.93488167844771
100153.1863194393809
100161.85231518582441
100166.15791944731609
100169.61146375449607
100175.75211052813393
100186.46783308048907
100199.85355527246429
100211.71247427491471
100218.11410006246297
100217.58039417405962
100211.8513078178803
100204.23323263005295
100198.1717266280757
100196.21263039446785
100199.89934950594034
100208.97963985268143
99709.668440830530017
99707.860607937269378
99708.487656494966359
99710.861196103971452
99713.962561764667043
99716.676005661705858
99718.125536590741831
99717.986837076707161
99716.511563418898731
99714.434413489565486
99712.762627976815565
99712.466221052833134
99714.250765486067394
99718.432007030918612
99724.869930311760982
99733.069346094707726
99742.409711486980086
99752.080968879803549
99761.571842143879621
100052.14797945624741
100043.05099338160653
100056.24232064100215
100082.81988148906385
100110.83816532688797
100129.76838175735611
100133.61515185676399
100122.39230351489095
100101.70661851983459
100080.56908939465939
100067.40315175050637
100066.06446726103604
100075.72773400167353
100092.46763928973814
100111.36557715079107
100128.52224197762553
100141.20232932937506
100148.76026536953577
100152.16703128395602
100154.09752990698325
100158.30289535113843
100167.72150164844061
100182.09720657528669
100197.48163259222929
100209.05438644380774
100213.60859125616844
100211.42019655175682
100205.18291121901711
100198.72947077437129
100195.06672730670834
100195.53028679243289
100199.43633241154021
99698.396864969181479
99695.073187071422581
99693.763175065803807
99694.416170020325808
99696.574591984215658
99699.568343854014529
99702.590938104403904
99704.965461178624537
99706.36997375683859
99706.805480050417827
99706.57282027497422
99706.18401697173249
99706.116830735700205
99706.724495210903115
99708.30761116562644
99711.06041241704952
99715.11017684613762
99720.424051785565098
99727.072194697058876
100086.54277222549717
100097.66135246405611
100119.612425889718
100140.8891940578178
100151.23334735997196
100145.51060966894147
100125.64275297343556
100098.22708065502229
100071.77496603838517
100054.54576399440703
100050.57321660046
100058.64266550650063
100074.53358571199351
100093.27170927157567
100110.42578282690374
100123.71619626060419
100132.26784654293442
100137.08302588709921
100140.34739765306585
100145.65492196167179
100155.58931535230658
100170.37052872267668
100186.44449710313347
100198.91413626629219
100204.36165104726388
100202.47172818779654
100196.05916191586584
100188.96089873736491
100183.43536689764005
100180.03577990237682
99695.408025103693944
99694.305139776188298
99694.970332011813298
99697.318621403843281
99700.851016505228472
99704.83395458535233
99708.424949377891608
99710.901221323918435
99711.842258754186332
99711.106578760241973
99708.828543843716034
99705.425329977457295
99701.524333612265764
99697.860453331697499
99695.180505826501758
99694.221093249783735
99695.462242771318415
99699.289478486563894
100149.60640955192503
100161.49655853246804
100170.86518562762649
100171.12703031778801
100158.77564904090832
100134.67018148570787
100103.96328116317454
100073.57317579376104
100050.50778526579961
100039.38236644526478
100040.90479557563958
100051.95729652528826
100067.92900899557571
100084.4382227135502
100099.12150351199671
100110.72218736399373
100119.95429815577518
100128.2526482417743
100137.78640449873637
100149.61944866970589
100163.3369733010768
100175.80501949660538
100183.73339456124813
100184.74768552668684
100179.59755013562972
100170.91668344571372
100162.34381780364492
100154.49693579165614
99703.454867079650285
99705.180062203115085
99708.54775677442376
99713.293530947179534
99718.796510493659298
99724.099098629623768
99728.150049717805814
99730.023516776549513
99729.127393635979388
99725.334911449215724
99718.967473287411849
99710.729540158557938
99701.650036592240212
99692.913910060276976
99685.66734541466576
99680.917415595627972
99679.266183421917958
99681.085194357670844
100195.24206953003886
100193.57153761104564
100186.31000334474084
100171.7197772780637
100149.12460534195998
100119.62995846221747
100087.63290077565762
100059.34977432595042
100039.88539843421313
100031.3707161933271
100032.75810147203447
100041.07253203046275
100053.20146866662253
100067.16334781276237
100081.95154993732285
100097.28594656538917
100112.9504633879842
100128.3294197016221
100142.39876241525053
100153.42857265312341
100159.39641579220188
100158.86148835654603
100151.99046202593308
100140.79335532903497
100128.4155911681155
100116.76389697946433
100106.55646241371869
99722.443819421489025
99731.07140383758815
99740.885832705680514
99750.374717097030953
99757.951832862279844
99762.180863254572614
99762.066206956660608
99757.239955701399595
99748.039439162195777
99735.492567060704459
99721.079633662520791
99706.423901927817496
99693.066614230498089
99682.272589583779336
99674.946832877700217
99671.524152442958439
99672.110429629261489
100214.76241043471964
100208.81343857375032
100203.63635527114093
100196.23505331663182
100183.85631751547044
100164.7656695767364
100139.33673535336857
100110.12802794972959
100080.74749166876427
100055.31557319921558
100036.34606412085122
100024.49495673752972
100019.79524018224038
100022.46941624226747
100032.24759976663336
100048.10297743999399
100067.79156561636773
100088.60674758531968
100107.72799300625047
100122.57775085984031
100130.52339144841244
100130.43045480486762
100122.32692500590929
100108.17874138474872
100090.94860007009993
100074.06481353461277
100059.0540515564644
99761.560102251416538
99777.152321815097821
99791.497145121800713
99801.950136995161301
99806.488175496357144
99804.028422930772649
99794.618988672766136
99779.421945910158684
99760.427384436130524
99740.01296534188441
99720.444275428744731
99703.490870393565274
99690.284766482160194
99681.355566810860182
99676.727068193635205
99676.122256132090115
100198.0891427269089
100196.01496643845167
100196.64774529360875
100194.6637635572115
100186.10255097887421
100169.83482963354618
100147.50440241378965
100123.34462512220489
100099.8508441720187
100076.77037064864999
100053.86672432156047
100032.69691469774989
100016.70518237503711
100009.43786325711699
100012.32518114290724
100023.98847520349955
100040.59562558158359
100058.37888797200867
100074.58644625805027
100087.02024425870331
100093.73062201720313
100093.06751348859689
100084.18591829802608
100068.60429189431306
100049.00364378241648
100029.14616080737324
100011.70061873050872
99997.915640530991368
99812.459823097582557
99828.858581766078714
99840.184406434840639
99844.265534120117081
99840.133026336989133
99828.197777278386638
99810.112611678036046
99788.331576281998423
99765.536715870926855
99744.178358403776656
99726.125766936616856
99712.419434247727622
99703.278941959812073
99698.353371774428524
99696.970859524633852
100172.72235128207831
100179.8263162029034
100183.10589062520012
100177.43279044008523
100162.88697957352269
100144.27119507681346
100126.18486047936312
100109.74687475900282
100092.33843837484892
100071.17341600170766
100047.25436825066572
100025.36245260332362
100011.00117221701657
100006.60392781099654
100010.60967305404483
100019.10194678358675
100028.98066140453739
100038.77045180687855
100047.47007920975739
100053.65446011956374
100054.7733610549476
100048.83887486788444
100035.63017627384397
100017.55051214783452
99997.780269855473307
99979.507388162048301
99965.075986551382812
99856.734674947452731
99867.503162795037497
99870.695928569795797
99865.589640472418978
99852.881513971035019
99834.392605438115424
99812.649105685719405
99790.362186654892866
99769.931145529277273
99753.077435837811208
99740.604322073340882
99732.423253452478093
99727.948614380700747
99726.308195834048092
100156.58995017503912
100162.69146412554255
100158.34085003631481
100145.58232093715924
100131.18609797669342
100119.96119425278448
100111.52868254495843
100101.61313507593877
100085.83835751080187
100064.33706870996684
100041.55102892281138
100022.98806177129154
100011.33933325378166
100005.34994777059183
100002.22398321003129
100000.78844050552289
100001.64823581511155
100005.25224467455701
100010.65277721305029
100014.59086546620529
100013.30972855733125
100005.17860478807415
99991.215387974341866
99974.054402853973443
99956.993798085604794
99943.32325674367894
99887.322274945676327
99889.505910047664656
99884.076874605176272
99871.886877637836733
99854.848408122343244
99835.40580131423485
99816.02070075305528
99798.763279312348459
99784.981837992818328
99775.135249577448121
99768.893838686606614
99765.528391041603754
99764.057530476507964
100135.90674577644677
100131.37382914713817
100120.78243845526595
100110.98180077511643
100106.52833481413836
100105.89854444924276
100103.60295727917401
100094.71124190371484
100078.74656236503506
100058.9600552268821
100039.44160374277271
100022.31196443263616
100007.00075449717406
99992.460513080426608
99979.454825346212601
99970.392431771761039
99967.68459902680479
99970.834936317158281
99976.354429154671379
99979.584725341686863
99977.409973702946445
99969.08663261217589
99956.345607668248704
99942.456593062976026
99931.445480746944668
99900.730666982024559
99895.638942448305897
99885.11961559575866
99870.965515772870276
99855.371367272615316
99840.452178720996017
99827.83778722511488
99818.381664415690466
99812.133801434567431
99808.523710449866485
99806.713628074794542
99805.684861790243303
100101.12129402485152
100092.83948604443867
100087.82342439134663
100089.03699429795961
100094.47664047421131
100098.67572810452839
100096.54857485288812
100086.77354058102355
100071.51580389254377
100053.51670353540976
100034.17471467617725
100013.17504248887417
99990.573517033248208
99968.346231828283635
99950.527252797066467
99940.851016469590832
99939.515208644384984
99944.112925815192284
99949.814998605303117
99952.536338987221825
99949.965902217925759
99942.50318051391514
99933.477248290728312
99926.677740099621587
100066.23130589406355
100064.57598311694164
100069.60733691958012
100079.13079581200145
100088.04085760978342
100091.52272250854003
100087.2486073110922
100076.38337101704383
100061.19775665896304
100042.77856170099403
100020.60522762213077
99994.781974199839169
99967.404115815850673
99943.061148245702498
99926.311190970736789
99919.749421648637508
99921.206055229908088
99926.946766725290217
99932.08383153671457
99933.48469391753315
99931.103508906555362
99927.362092886367464
99925.675326623022556
100049.80280812496494
100061.29993017030938
100073.36503334977897
100080.82910856454691
100080.65906059382542
100073.48891157240723
100061.60598209356249
100046.22765727022488
100026.70953078227467
100002.33488309559471
99974.273924889042974
99946.848772226207075
99925.173536559959757
99912.815752423688537
99909.837839692845591
99912.992044102749787
99917.786838563610218
99920.978294056025334
99922.162249158762279
99922.913814181709313
99926.153709853359032
100069.13607271206274
100064.72676808915276
100055.82319161464693
100044.47350273460324
100030.05017356868484
100010.62121984094847
99985.85125509397767
99958.831994774125633
99934.610913553799037
99917.780898123222869
99910.081896824238356
99909.533137337057269
99911.820797784384922
99914.1603546198603
99916.330954769902746
99919.73078047366289
99926.870627492011408
100029.96859149477677
100017.43965013914567
99998.577103607254685
99974.839763878146186
99950.941545284207677
99932.09712318261154
99920.906067604635609
99916.080004158458905
99914.518336870649364
99914.225832015115884
99914.900582529924577
99918.789273698101169
99927.532434755848954
100020.86496800600435
100009.25778626125248
99991.233179526418098
99970.584524451493053
99952.259072514658328
99939.128538922814187
99930.683336450456409
99925.039899122944917
99920.672705383665743
99918.421900787012419
99920.593505946555524
99928.613347571299528
100309.00174277203041
100298.92351585827419
100298.71382519193867
100297.61590781717678
100288.14721705345437
100271.62155219951819
100255.53319343243493
100246.89996062766295
100246.70292809628882
100250.0289240169659
100250.79143937119807
100246.25917444619699
100238.31201598550251
100231.43995025973709
100230.19615811566473
100236.77240361488657
100249.98552678991109
100264.43666029570159
100272.69600288324
100268.99761283803673
100343.46403867170739
100312.92368901072768
100299.48132175696082
100297.79951533391431
100295.85008171533991
100284.97322951968818
100265.69877157644078
100246.51885550610314
100235.99203858178225
100235.73123704266618
100239.93569517155993
100241.14340899036324
100235.97276447262266
100227.40349426575995
100221.74808036019385
100224.26233672369563
100235.8776222531742
100253.02178031687799
100268.62848198287247
100275.64788711928122
100270.2732641568
100253.36258421836828
100434.8529475848336
100395.54467373380612
100350.97372179727245
100316.33068865958194
100299.87592825364845
100296.96975575748365
100294.40097240150499
100282.22482634223707
100260.32057148845342
100238.16520237848454
100225.84070929037989
100225.66537370365404
100230.99872947348922
100232.81321350837243
100227.15406304138014
100217.96997984226618
100213.33375463343691
100219.20753264360246
100235.45775972839328
100256.03272133119754
100272.49925254714617
100278.15726763595012
100271.09426255214203
100253.94307481960277
100232.0096854143776
100211.09998246002942
100467.53278197636246
100446.65560227201786
100405.46142008718743
100357.34322176148999
100318.94907413050532
100299.9541643345292
100296.17230628455582
100293.31094312870118
100279.91226753911178
100255.56565223024518
100230.67218394667725
100216.74089880926476
100216.789592523186
100223.41790280312125
100225.90770839912875
100219.84067466035776
100210.03607281323639
100206.19961191821494
100214.99295260779036
100235.3248324439337
100258.95676763822848
100276.02176340548613
100280.29981054905511
100271.62497287165024
100254.30285747822199
100233.41136139009905
100213.09234342709533
100195.93125404219609
100474.15720475491253
100477.27958879078506
100456.92345456629118
100413.94246587797534
100362.50625135276641
100320.82586832116067
100299.78347670240328
100295.45412711008976
100292.55298575326742
100278.04548282102041
100251.396265482952
100223.90824653262098
100208.52492105236161
100208.99498190564918
100217.05864375176316
100220.34050088621734
100213.86305740030366
100203.40607238498342
100200.11687717636232
100211.44930291334458
100235.35386089753592
100261.70200781835592
100279.25361739515211
100282.2029444193322
100272.05196733339108
100254.58814694819739
100234.71843038631778
100214.9809382877429
100196.73718896387436
100182.90081965705031
100462.15902221368742
100480.32897147917538
100485.64100256745587
100465.65557571710087
100420.90175884231576
100366.35270632659376
100321.78514814685332
100299.18336202719365
100294.73241405007138
100292.11757106457662
100276.80231763371557
100248.07022713919287
100218.27092490474752
100201.66650260085589
100202.67120089859236
100212.14669487721403
100216.22690885839984
100209.24011570450966
100198.00597247054975
100194.99409674527124
100208.46448770308052
100235.48409480741248
100264.15464656725817
100282.09361619476113
100283.84560006264655
100272.38544808390725
100254.76039582173689
100235.86053664602514
100216.72030054140487
100197.44952314233524
100181.32088503199338
100175.08042068802752
100464.34564866000437
100485.21635077388783
100492.31425955041777
100472.53074571517936
100426.22747649732628
100369.07380627559905
100322.23690968229494
100298.52262579316448
100294.20361648572725
100291.99738242174499
100276.05158552556532
100245.41837898609811
100213.5893197471014
100196.04920377733652
100197.66612998968048
100208.4734095602762
100213.30607489109389
100205.86126591889479
100193.82177666724601
100190.97925572945678
100206.1426018756174
100235.72900577572
100266.3055093116709
100284.55590701119218
100285.29309330724936
100272.69342715201492
100254.89907107198087
100236.83635100268293
100218.19369903371262
100198.01634429080877
100179.89819643560622
100172.07944273148314
100181.81746654903691
100080.96693917692755
100093.75878143556474
100097.67605439618637
100087.32000383171544
100061.967139884684
100035.31936744047562
100465.77663221590046
100488.62733707002189
100497.06629544793395
100477.31851467744855
100429.79258630987897
100370.62506005182513
100322.08143262202793
100297.73470360584906
100293.78990965809498
100292.04383866763965
100275.7111098162859
100243.70822928800771
100210.37606985113234
100192.26044324174291
100194.33622985485999
100206.17945570054871
100211.55179949066951
100203.75429640666698
100190.96931890849373
100188.17739954395802
100204.45760444564803
100235.87918417037872
100267.86165482018259
100286.35699519733316
100286.33389639163215
100272.89651798013074
100254.97563698935846
100237.48655629140558
100219.23407204565592
100198.42458832189732
100178.83104919576726
100169.88994143011223
100179.57342362335476
100206.86277961744054
100056.58067954143917
100083.20659704483114
100096.07665658676706
100099.51225484584575
100087.82143144014117
100060.69395324829384
100033.48075864472776
100466.51346323057078
100490.48510307748802
100499.64603272985551
100479.79523491446162
100431.50849687177106
100371.22666520770872
100321.88450846253545
100297.31360018889245
100293.66727962650475
100292.19305194543267
100275.58026757938205
100242.73958810194745
100208.63958077033749
100190.27630550540925
100192.64020070628612
100205.1104936976335
100210.72353358377586
100202.69835571099247
100189.4406927148957
100186.66524319641758
100203.60904763884901
100236.05997500027297
100268.83753567126405
100287.43444783448649
100286.95598769215576
100273.05161028102157
100255.05521428209613
100237.83473072975175
100219.7588180933235
100198.58316483313683
100178.16887012691586
100168.65033400295943
100178.39610621807515
100206.54500882053981
100239.48975580751721
99751.49224627618969
99733.137029824560159
99716.03413494778215
99701.546537114554667
99691.000085206600488
99685.522993430131464
99685.863383956020698
99692.227709279963165
99704.239002438931493
99720.898606483853655
99740.634030431741849
100009.41610773128923
100010.13299725855177
100010.74921554698085
100015.33261140840477
100024.74178844466223
100036.64446785599284
100048.14456877860357
100057.93791337331641
100066.80971901789599
100076.17968562607712
100085.92958043365797
100094.24015717529983
100099.63114104080887
100102.82090293972578
100106.4991931696859
100113.37431566526357
100122.67728426388931
100129.96621146571124
100129.96230957758962
100120.78957460359379
100106.28296522531309
100094.40083424501063
100093.43365951764281
100107.43504111703078
100134.23818580091756
100166.02448014866968
100193.21672978173592
100208.38533684656431
100208.78367595063173
100196.44481698382879
100177.00543234456563
100157.34381239704089
100143.40401321991521
100138.41124876972754
100142.40935026136867
100152.14962439225928
99803.966350330927526
99799.73601657130348
99796.239910339849303
99792.694878912530839
99788.401756215869682
99782.813669846233097
99775.499737537029432
99766.158165702785482
99754.731969447268057
99741.42005781167245
99726.746752768565784
99711.673090496187797
99697.485881239743321
99685.593867671821499
99677.400810425460804
99674.13307138858363
99676.601482510726782
99684.970021437678952
99698.748155555236735
99716.765327682645875
99737.303561355074635
99997.889024366362719
100005.50436512340093
100019.81588246457977
100040.07653498595755
100062.19866271488718
100079.9619841465319
100089.58504888870812
100091.60578782386438
100089.76149160928617
100088.43639806917054
100089.77672161471855
100092.29995653562946
100093.63772701620474
100092.88918344797275
100092.47583130742714
100095.73455648806703
100103.59512811245804
100113.41751213390671
100120.48754597519292
100120.97168099829287
100115.52087929459231
100108.709009644037
100107.14138242040644
100115.05527515319409
100132.52780148223974
100154.74800011928892
100174.73914151416102
100186.14608867876814
100185.71711155379307
100174.31883543515869
100156.51288256124826
100138.668919785865
100126.969415770669
100124.57371234436869
100131.17508182719757
100143.13051440104027
99783.082520731040859
99773.596119016990997
99765.548313978026272
99758.679484121865244
99752.623988350955187
99746.844295443414012
99740.724732879694784
99733.645951156606316
99725.119944400023087
99714.951823617040645
99703.353377858438762
99691.056367376484559
99679.301100793774822
99669.638826227557729
99663.632807444533682
99662.573843758626026
99667.244186804906349
99677.684499255003175
99693.185688031284371
99712.286654208699474
99733.094373716783593
100014.56706225346716
100042.25371015253768
100076.02413229623926
100107.05763411520456
100126.8315806966566
100131.7273929961957
100123.87548531910579
100110.12034044359461
100097.9053515484411
100090.99814091618464
100088.22065638283675
100086.37216484833334
100083.39056796538353
100080.47603972507932
100080.91250904239132
100087.65117120824289
100099.98808310140157
100113.82875844632508
100123.94897721978487
100127.65221275785007
100125.73143180646002
100122.02100538116065
100120.97952349593106
100125.43043699300324
100134.94075284156133
100146.03562108149345
100153.77725949663727
100153.80352975933056
100145.22739692265168
100130.95512349354976
100116.5347584020783
100107.8444231114554
100108.17433326070022
100116.96951686359535
99752.587934295588639
99741.279268385304022
99732.094204413384432
99724.862609556919779
99719.117519723440637
99714.081638543895679
99708.786389518834767
99702.32551269743999
99694.167441972735105
99684.368471707537537
99673.655118311027763
99663.365430853838916
99655.205549979698844
99650.874333932239097
99651.697837874598918
99658.364330413663993
99670.685010564106051
99687.669979444486671
99707.569417759397766
99728.292253614054061
100038.18215480519575
100074.9992513559846
100115.10700447870477
100147.60174807612202
100164.20474592545361
100161.81305143969075
100144.35578106118191
100120.99129017769883
100100.74576281462214
100088.22600885829888
100082.48691954540845
100079.48207928142801
100076.39655506833515
100073.10182928013091
100072.24522033055837
100077.4895422981499
100090.06204709480517
100107.39788431111083
100124.13731935697433
100135.00686092764954
100137.37913309951546
100131.95755888373242
100122.82815622267663
100115.18410205944383
100112.66597911692224
100115.10934999033634
100119.03229956114956
100119.65992012179049
100114.40057687580702
100104.42984722097754
100094.11654355368228
100088.51057261702954
100090.73130828075227
100100.23945336825273
99737.191419346403563
99724.262072610130417
99714.04067843631492
99706.521866922237677
99701.180677369004115
99697.019491521816235
99692.785103410817101
99687.335641657773522
99680.024073435342871
99670.957529584411532
99660.987086266977713
99651.574589753799955
99644.526780966611113
99641.596653747124947
99644.061930714175105
99652.408944428621908
99666.187058896364761
99684.147915469817235
99704.312243644788396
99724.494489300166606
100109.20323891506996
100145.71596646076068
100171.30583725366159
100179.37126587129023
100169.63829078894923
100147.16268288671563
100119.91498020093422
100096.2733231579914
100081.34090711227327
100074.82701245453791
100072.7725429435668
100071.5851890554186
100070.04382154182531
100069.48452693433501
100072.8610735572729
100082.51187825061788
100098.19329656264745
100116.24232183811546
100130.99579049063323
100137.20546208423912
100132.93544526703772
100120.65407394863723
100106.21793616164359
100095.57381120105856
100091.06117060432734
100090.80632992765459
100090.74909064215899
100087.66039859094599
100081.37941344582941
100074.8086303788441
100071.6462556757906
100074.25888964939804
99714.389951504446799
99703.81310843618121
99695.901529900293099
99690.131406842847355
99685.482293593231589
99680.755490778683452
99674.908557847462362
99667.382108476173016
99658.402643080218695
99649.013978986331495
99640.780885310101439
99635.407092311375891
99634.407785853298265