/*--------------------------------*- C++ -*----------------------------------*\
  =========                 |
  \\      /  F ield         | OpenFOAM: The Open Source CFD Toolbox
   \\    /   O peration     | Website:  https://openfoam.org
    \\  /    A nd           | Version:  12
     \\/     M anipulation  |
\*---------------------------------------------------------------------------*/
FoamFile
{
    format      ascii;
    class       volScalarField;
    location    "0.0135";
    object      pPrime2Mean;
}
// * * * * * * * * * * * * * * * * * * * * * * * * * * * * * * * * * * * * * //

dimensions      [2 -2 -4 0 0 0 0];

internalField   nonuniform List<scalar> 
106891
(
825105.01739692687988
824324.8793830871582
823533.97867584228516
822734.45696640014648
821932.52279472351074
821133.35529708862305
820344.07760429382324
819565.0501708984375
818799.13053703308105
818042.9470043182373
817292.78452491760254
1130944.8621921539307
1129820.6011142730713
1128698.632905960083
1127581.1467094421387
1126471.8181114196777
1125371.3757572174072
1124275.3457851409912
1123175.7761707305908
1122066.4593677520752
1120947.4046611785889
1119823.4746437072754
1118701.1531429290771
1117586.5531787872314
1116484.1883716583252
1115393.7382068634033
1114308.3832206726074
1113219.221263885498
1112121.0570755004883
1111015.2444229125977
1109910.3668975830078
1108818.6027793884277
1107747.6736145019531
1106696.5858268737793
1105658.811206817627
1104629.3274898529053
1103608.3264541625977
1102599.3957099914551
1101604.6947422027588
1100622.2357940673828
1099645.8043346405029
1098665.5760097503662
1097672.2271728515625
1096662.0966110229492
1095638.6728763580322
1094607.9966678619385
1093575.0381851196289
1092542.4912910461426
1091511.4590320587158
831305.80405426025391
830481.77913665771484
829665.28940582275391
828858.02115821838379
828061.93987655639648
827278.44765090942383
826507.12307357788086
825744.85771751403809
824985.80863189697266
824223.01737785339355
823450.49447631835938
822666.07171630859375
821871.19360160827637
821071.66484069824219
820272.70061492919922
819481.57111740112305
818699.49620628356934
817929.99281883239746
817170.68042945861816
816417.4348258972168
1129803.9204292297363
1128683.3251609802246
1127570.8246116638184
1126468.6404266357422
1125377.4329853057861
1124293.0789356231689
1123207.3961887359619
1122113.3555965423584
1121009.898365020752
1119901.6410846710205
1118795.6327476501465
1117698.7343444824219
1116616.46755027771
1115547.9101905822754
1114483.9277229309082
1113412.995210647583
1112329.0051155090332
1111234.836576461792
1110141.5929565429688
1109061.7651557922363
1108001.9665355682373
1106960.2875595092773
1105930.2573623657227
1104907.1848926544189
1103890.5825729370117
1102882.5549125671387
1101884.8131713867188
1100896.3106803894043
1099911.9199047088623
1098921.9942836761475
1097915.8107471466064
1096887.1462745666504
1095838.4133605957031
1094778.356258392334
1093716.5750560760498
1092659.4510593414307
830471.58418464660645
829643.5026912689209
828820.65925788879395
828004.37273025512695
827197.43326187133789
826402.87919044494629
825622.04080390930176
824853.10976409912109
824090.9061164855957
823328.61045074462891
822559.97219848632812
821782.04489707946777
820995.07803916931152
820203.34107398986816
819410.6757698059082
818623.44186019897461
817842.86221885681152
817073.22528648376465
816313.62696647644043
815562.71455955505371
1129904.9337196350098
1128775.8483371734619
1127656.7385883331299
1126548.6890621185303
1125452.1891784667969
1124364.3396854400635
1123278.1914043426514
1122187.0803909301758
1121090.1743240356445
1119991.8866786956787
1118898.0621013641357
1117814.6284046173096
1116746.8263053894043
1115694.2521476745605
1114647.8931045532227
1113595.0676574707031
1112528.819299697876
1111452.8476409912109
1110378.5402526855469
1109316.9307746887207
1108272.9143657684326
1107243.9776439666748
1106224.3422183990479
1105209.4240112304688
1104197.4022407531738
1103188.4819812774658
1102183.7132396697998
1101182.5189037322998
1100181.1194801330566
1099172.5820217132568
1098147.402364730835
1097097.9552059173584
1096024.5449333190918
1094936.8607845306396
1093847.8690929412842
1092766.7842102050781
828830.06054496765137
828004.77140426635742
827185.67003440856934
826374.12627792358398
825572.2688045501709
824781.37875938415527
824000.65045738220215
823226.81583404541016
822455.09546852111816
821680.90633010864258
820901.82736968994141
820117.86762237548828
819331.88264656066895
818546.58441925048828
817766.31571960449219
816992.12036514282227
816226.23690795898438
815468.85705757141113
814715.0456371307373
1129025.8487968444824
1127889.9841537475586
1126763.904712677002
1125648.4885349273682
1124543.3527526855469
1123444.2657165527344
1122346.192361831665
1121248.6651573181152
1120155.46364402771
1119070.919792175293
1117999.3100547790527
1116944.0173892974854
1115904.2091751098633
1114872.0802974700928
1113836.4343872070312
1112791.1315364837646
1111739.4844303131104
1110690.3538703918457
1109651.137996673584
1108624.3104114532471
1107607.5827465057373
1106596.2628803253174
1105586.1380252838135
1104574.681510925293
1103561.5618457794189
1102547.0686588287354
1101530.1701908111572
1100508.5180892944336
1099478.0736770629883
1098431.5000762939453
1097361.286792755127
1096265.9793186187744
1095154.6536293029785
1094041.8829097747803
828939.87505531311035
828096.70051956176758
827264.51725769042969
826442.05636787414551
825628.70820236206055
824824.26421546936035
824028.33328628540039
823239.77243423461914
822456.36870765686035
821675.22183609008789
820893.65112113952637
820110.4361457824707
819325.98422622680664
818542.5785026550293
817762.30240631103516
816988.55193519592285
816222.61149597167969
815466.23446846008301
814720.7583179473877
813980.13224601745605
1129451.8973255157471
1128293.7262096405029
1127143.8395805358887
1126001.8052883148193
1124869.2487487792969
1123745.6802463531494
1122630.1284446716309
1121523.462121963501
1120428.9479885101318
1119350.1956520080566
1118289.3192520141602
1117246.0525188446045
1116217.5849475860596
1115197.7154369354248
1114179.0633754730225
1113157.6402111053467
1112135.5299854278564
1111117.3101406097412
1110105.8674144744873
1109100.8070297241211
1108099.1943168640137
1107096.3268928527832
1106087.7870140075684
1105072.8131141662598
1104053.2969341278076
1103030.1138477325439
1102001.6337947845459
1100965.1052227020264
1099917.2501564025879
1098852.4297218322754
1097763.5603809356689
1096648.9072551727295
1095517.4207992553711
827544.55294418334961
826699.09909057617188
825866.38805198669434
825045.50215339660645
824235.0483455657959
823433.3770923614502
822638.84737586975098
821849.7152214050293
821064.20113372802734
820280.66290473937988
819498.52657890319824
818717.92318534851074
817940.56346321105957
817167.28199577331543
816401.13393211364746
815642.52116775512695
814894.52363777160645
814156.98354148864746
813426.67822456359863
1128857.7715892791748
1127679.7858409881592
1126507.0718250274658
1125342.4358386993408
1124188.9876384735107
1123048.90846824646
1121924.8409194946289
1120820.8862400054932
1119741.4403915405273
1118688.0644721984863
1117657.1851253509521
1116641.9604091644287
1115635.9171028137207
1114634.6304054260254
1113636.4493446350098
1112643.392972946167
1111657.5218238830566
1110677.7965564727783
1109699.4683380126953
1108717.2090969085693
1107726.450159072876
1106724.7027893066406
1105713.2294311523438
1104695.581262588501
1103673.146785736084
1102642.9354057312012
1101600.585807800293
1100542.1071739196777
1099463.4872436523438
1098360.7668495178223
1097234.2365188598633
1096092.3151874542236
827192.04951477050781
826337.49588584899902
825495.78822326660156
824666.13619995117188
823847.19025802612305
823037.66999626159668
822236.7739200592041
821443.74090003967285
820657.44985961914062
819876.36675834655762
819099.57915496826172
818326.74953651428223
817558.8229866027832
816795.74788856506348
816039.27673149108887
815288.6019287109375
814545.48603248596191
813808.97735595703125
813075.21017456054688
1128238.8529052734375
1127030.4822311401367
1125830.1424713134766
1124644.4926986694336
1123478.1155796051025
1122333.9321899414062
1121215.4165363311768
1120126.7190647125244
1119069.8103427886963
1118041.0588321685791
1117032.1394386291504
1116035.7778358459473
1115049.13330078125
1114072.4798564910889
1113106.7860946655273
1112151.1194095611572
1111200.672794342041
1110247.7442531585693
1109286.3268699645996
1108313.726131439209
1107330.1073570251465
1106336.6559772491455
1105334.8952884674072
1104324.8299770355225
1103303.306697845459
1102265.5279731750488
1101207.7718906402588
1100127.6673316955566
1099024.1377334594727
1097899.5211811065674
826179.81814384460449
825331.71088790893555
824495.04661560058594
823669.67928314208984
822855.33143043518066
822051.54312324523926
821257.42020034790039
820471.58844757080078
819692.48533248901367
818919.22019004821777
818151.60611534118652
817390.37973785400391
816635.55132102966309
815887.89400672912598
815146.55506134033203
814411.25955390930176
813681.49800300598145
812950.63551330566406
1127609.107084274292
1126367.7686595916748
1125146.5779514312744
1123952.1730422973633
1122787.2801570892334
1121652.4811897277832
1120549.52712059021
1119480.0198440551758
1118441.9770469665527
1117428.9147148132324
1116434.9763069152832
1115457.4867000579834
1114495.7902889251709
1113548.8079853057861
1112613.3617267608643
1111682.3228359222412
1110746.667407989502
1109801.07248878479
1108845.6996421813965
1107882.0852756500244
1106910.3836898803711
1105929.225435256958
1104935.9515933990479
1103926.9453296661377
1102898.3695545196533
1101847.831111907959
1100774.7937297821045
1099680.0911808013916
826251.67124938964844
825398.32806015014648
824556.15324401855469
823726.06051254272461
822908.37868499755859
822102.55424880981445
821307.0425910949707
820519.76366806030273
819738.88196754455566
818963.70613288879395
818194.61847305297852
817432.87504577636719
816679.00140571594238
815933.67973327636719
815196.00594711303711
814464.73190116882324
813739.04866027832031
813011.82370758056641
1127116.1756114959717
1125860.0242614746094
1124636.0507984161377
1123446.6469383239746
1122290.7838363647461
1121168.887393951416
1120082.911153793335
1119031.2081241607666
1118008.7237129211426
1117010.5883445739746
1116034.7910041809082
1115080.1692905426025
1114145.5371417999268
1113226.8842182159424
1112314.6476955413818
1111397.1275005340576
1110467.3992881774902
1109526.1567764282227
1108576.7164554595947
1107619.2763156890869
1106651.1458854675293
1105669.19020652771
1104670.5663471221924
1103653.254602432251
1102616.1343975067139
1101558.1534194946289
1100479.3462600708008
825752.91067314147949
824904.94833755493164
824069.49499893188477
823246.86743545532227
822435.62698364257812
821633.22395133972168
820837.1655330657959
820045.96413612365723
819259.84421157836914
818479.97427558898926
817708.20048332214355
816945.50419235229492
816192.80601501464844
815449.26393127441406
814713.37552642822266
813983.79438018798828
813253.93930244445801
1129338.9502601623535
1128033.527645111084
1126751.9102573394775
1125501.914571762085
1124289.3526096343994
1123115.8659744262695
1121981.9549541473389
1120887.5325679779053
1119829.820426940918
1118802.9518203735352
1117801.4674224853516
1116822.6785869598389
1115867.6008987426758
1114937.8146705627441
1114030.8227424621582
1113136.3111515045166
1112239.8761806488037
1111330.8429393768311
1110406.7565670013428
1109470.7631015777588
1108525.2205257415771
1107568.7632217407227
1106598.4311618804932
1105612.2201747894287
1104609.1975574493408
1103587.9087562561035
1102546.0100517272949
825541.52200698852539
824703.17476463317871
823874.85291290283203
823054.34224128723145
822239.25693893432617
821428.0028018951416
820620.19600105285645
819816.45637512207031
819017.7250804901123
818225.14285469055176
817439.61946678161621
816662.26950454711914
815893.91398429870605
815133.4915885925293
814381.10041236877441
813629.26658630371094
1130017.4094848632812
1128715.759241104126
1127436.6397705078125
1126184.2178897857666
1124964.3547840118408
1123782.8554000854492
1122643.3707447052002
1121547.147876739502
1120490.0069847106934
1119462.2798156738281
1118454.1489944458008
1117462.4864158630371
1116491.9392738342285
1115548.9147129058838
1114633.6529598236084
1113736.4872150421143
1112842.6670379638672
1111940.3005676269531
1111024.5900001525879
1110095.5655136108398
1109154.4156684875488
1108201.0539131164551
1107234.8615894317627
1106254.9673900604248
1105259.7448406219482
1104245.9517364501953
1103210.007999420166
1102150.0247001647949
825333.36281394958496
824497.70703887939453
823667.23807334899902
822840.06532287597656
822015.25169563293457
821192.75602531433105
820373.12469100952148
819556.81502723693848
818744.59920310974121
817937.22390937805176
817136.31587600708008
816343.37777328491211
815558.73002433776855
814782.84181976318359
814010.02076721191406
1129424.4330654144287
1128156.5890331268311
1126911.6081275939941
1125693.7193508148193
1124510.0034732818604
1123366.6760234832764
1122265.2522258758545
1121200.3825664520264
1120160.7942810058594
1119135.5128173828125
1118121.6315231323242
1117125.853946685791
1116157.0123748779297
1115217.4277820587158
1114299.944091796875
1113391.5808944702148
1112480.6322193145752
1111560.3999404907227
1110628.4100608825684
1109684.0833396911621
1108727.4362754821777
1107758.3647155761719
1106775.8487071990967
1105776.8652782440186
1104757.8907375335693
1103716.0102214813232
1102650.3448257446289
825309.68494033813477
824468.4618091583252
823630.40445709228516
822794.51317024230957
821960.37235641479492
821128.08355522155762
820297.59225654602051
819469.32176208496094
818643.54135322570801
817821.92775344848633
817006.02471351623535
816196.9757137298584
815394.85572624206543
814594.93874740600586
1129015.9485149383545
1127776.330638885498
1126558.4619045257568
1125371.4219932556152
1124222.7116050720215
1123111.8787212371826
1122031.1403579711914
1120969.1256923675537
1119916.2182750701904
1118870.6981887817383
1117839.6349048614502
1116832.3085289001465
1115852.8807506561279
1114897.7685794830322
1113957.7961292266846
1113022.7869911193848
1112085.1247501373291
1111139.9333076477051
1110184.2830219268799
1109216.4676189422607
1108235.650936126709
1107240.800708770752
1106229.7734375
1105199.4356021881104
1104147.3503532409668
1103073.2350368499756
825426.14269065856934
824575.29710578918457
823726.75520515441895
822879.52935028076172
822033.1504020690918
821187.36069869995117
820342.23932456970215
819497.84182739257812
818655.37678146362305
817816.68037986755371
816982.86094093322754
816155.40152931213379
815329.17145156860352
1128737.7762203216553
1127517.9550647735596
1126326.0902690887451
1125168.6592426300049
1124043.3247947692871
1122941.2276725769043
1121852.0704822540283
1120768.385835647583
1119689.5730934143066
1118622.0779323577881
1117574.5655384063721
1116552.006254196167
1115553.9234142303467
1114575.2042961120605
1113608.349479675293
1112645.9573745727539
1111681.5721035003662
1110709.7503528594971
1109726.9198055267334
1108730.552490234375
1107719.8306560516357
1106694.5812397003174
1105652.9122467041016
1104591.9989490509033
1103510.1068572998047
825676.77951431274414
824816.67401123046875
823957.18752288818359
823097.3552303314209
822236.77843284606934
821375.3127384185791
820512.71716690063477
819649.85453033447266
818788.79876136779785
817931.42678070068359
817080.54559135437012
816231.36211395263672
1128589.8457012176514
1127388.7279949188232
1126218.198881149292
1125074.6442031860352
1123948.7965755462646
1122831.993766784668
1121719.2327098846436
1120610.4755573272705
1119510.6953220367432
1118426.9176845550537
1117364.4467258453369
1116324.9815120697021
1115307.0127563476562
1114306.8831253051758
1113318.3468189239502
1112333.3029346466064
1111343.7182579040527
1110343.8689651489258
1109331.0926818847656
1108305.2641048431396
1107267.4649276733398
1106216.574878692627
1105148.1547470092773
1104058.9744472503662
1128519.8338985443115
1127331.5064582824707
1126167.9209957122803
1125020.7842903137207
1123881.2975807189941
1122744.6615886688232
1121610.6754837036133
1120483.2961349487305
1119368.2826957702637
1118270.3627548217773
1117192.7695293426514
1116137.5188903808594
1115104.3332977294922
1114088.6853466033936
1113081.7363567352295
1112073.8419399261475
1111058.0697631835938
1110031.4766387939453
1108994.0725803375244
1107946.296459197998
1106886.277063369751
1105808.7838249206543
1104710.5121593475342
1127360.6861305236816
1126191.5123271942139
1125030.0784225463867
1123870.3661155700684
1122711.4591674804688
1121556.9270935058594
1120412.0220642089844
1119281.5350513458252
1118169.8802452087402
1117080.747522354126
1116015.3825283050537
1114970.5695629119873
1113938.2899074554443
1112908.9737300872803
1111875.7073783874512
1110835.5943584442139
1109787.7302360534668
1108730.1170883178711
1107658.2712707519531
1106567.4320373535156
1105455.9434051513672
1123867.5532722473145
1122682.4994659423828
1121505.9800567626953
1120344.0500221252441
1119200.9747085571289
1118079.8497467041016
1116982.4019832611084
1115907.4375648498535
1114848.6552238464355
1113797.3300380706787
1112746.7678604125977
1111693.310230255127
1110633.3215408325195
1109561.3532428741455
1108471.8075408935547
1107361.9106178283691
1106233.3431072235107
1120268.2733402252197
1119119.621603012085
1117991.9233303070068
1116885.0738716125488
1115796.4674987792969
1114720.393009185791
1113650.3671913146973
1112580.3219299316406
1111504.0711650848389
1110414.5539493560791
1109305.6627063751221
1108175.839916229248
1107029.3481388092041
1120148.2685546875
1118994.7957344055176
1117861.1544513702393
1116747.1865501403809
1115648.6547870635986
1114558.7434177398682
1113469.8806285858154
1112374.6066589355469
1111265.8453311920166
1110138.5849018096924
1108992.5251636505127
1107832.3555870056152
1241722.5737342834473
1240639.0926532745361
1239575.1029949188232
1238512.2209911346436
1237441.8655471801758
1236360.4382171630859
1235262.2814388275146
1234137.7369327545166
1232977.3916759490967
1231777.3738651275635
1230540.3945713043213
1229272.4783840179443
1227979.8043537139893
1226668.0839614868164
1225343.5364685058594
1224012.6920375823975
1222680.0881958007812
1221347.3467407226562
1220014.7076950073242
1218683.8332042694092
1244089.7066879272461
1242965.8007984161377
1241884.4098205566406
1240821.8151054382324
1239758.8680534362793
1238686.7642726898193
1237602.0996284484863
1236498.9902763366699
1235366.1534748077393
1234192.0888156890869
1232971.8634433746338
1231709.8098468780518
1230415.1189804077148
1229097.2581043243408
1227763.8753509521484
1226421.5166263580322
1225075.3265857696533
1223728.0625762939453
1222380.6085357666016
1221033.8473968505859
1219690.4171009063721
1218356.6093692779541
1247675.0478248596191
1246437.1727981567383
1245256.3724231719971
1244133.2712383270264
1243052.7941913604736
1241990.2651710510254
1240925.6546058654785
1239850.2106246948242
1238760.5375843048096
1237650.210657119751
1236506.9315338134766
1235317.6289176940918
1234076.9724216461182
1232790.0779514312744
1231468.6006698608398
1230125.2204723358154
1228770.1639766693115
1227409.9720058441162
1226048.2553062438965
1224686.3478202819824
1223324.8581104278564
1221965.7289333343506
1220613.0489978790283
1219273.5082836151123
1217956.0343379974365
1216668.27712059021
1250031.9114093780518
1248746.4434432983398
1247507.8911991119385
1246325.2422103881836
1245200.2893352508545
1244117.8498077392578
1243052.4080600738525
1241983.5737705230713
1240902.271203994751
1239805.3500347137451
1238686.6056690216064
1237532.406665802002
1236327.9538230895996
1235067.5433521270752
1233757.6592807769775
1232412.5609474182129
1231047.4182662963867
1229673.9027004241943
1228298.7084369659424
1226924.2717590332031
1225550.3222103118896
1224176.692403793335
1222806.0009155273438
1221443.6206836700439
1220097.4556484222412
1218776.8095226287842
1217488.6072845458984
1216234.5069675445557
1252304.0570030212402
1250977.6616630554199
1249691.9375705718994
1248451.0596294403076
1247265.7154846191406
1246138.3336658477783
1245053.7678718566895
1243985.8245983123779
1242913.1249885559082
1241826.1798362731934
1240721.8717746734619
1239594.0501804351807
1238428.5779609680176
1237209.6922206878662
1235931.1012268066406
1234600.1295700073242
1233232.8966674804688
1231847.1813144683838
1230456.4404983520508
1229067.5646114349365
1227681.8255958557129
1226297.1602401733398
1224913.1068382263184
1223533.3708820343018
1222164.6318130493164
1220815.0761833190918
1219493.0862731933594
1218204.6261959075928
1216950.5835227966309
1215728.2428455352783
1254471.1275253295898
1253103.0061702728271
1251780.3737373352051
1250495.075590133667
1249252.0729789733887
1248063.4088764190674
1246932.7287540435791
1245844.5353107452393
1244771.9399471282959
1243693.3837890625
1242599.3381805419922
1241487.2000579833984
1240350.9920921325684
1239176.0243911743164
1237945.492977142334
1236652.539981842041
1235304.988805770874
1233920.4117965698242
1232518.3240127563477
1231113.8446292877197
1229714.2393913269043
1228319.5573501586914
1226926.5517234802246
1225534.1787433624268
1224146.8053188323975
1222771.926342010498
1221418.358491897583
1220094.59423828125
1218805.4829616546631
1217551.3211975097656
1216329.4042739868164
1215137.1015071868896
1255098.6816215515137
1253735.625431060791
1252414.6210460662842
1251128.3188495635986
1249882.8686065673828
1248691.4074859619141
1247557.9210529327393
1246466.716817855835
1245390.6986865997314
1244307.8784866333008
1243208.5050487518311
1242090.0513820648193
1240946.6800384521484
1239763.2435302734375
1238522.1329345703125
1237216.3108921051025
1235854.2661037445068
1234455.0721054077148
1233039.9404449462891
1231624.6715927124023
1230216.4195747375488
1228814.6717090606689
1227415.1769199371338
1226016.6345596313477
1224623.914867401123
1223245.3683338165283
1221889.8490123748779
1220565.3445320129395
1219276.2443714141846
1218022.4365615844727
1216801.2123889923096
1215610.0968475341797
1214450.6010322570801
1328144.4005527496338
1326082.0495071411133
1324030.6945533752441
1322016.9185638427734
1320062.4848079681396
1318184.5803337097168
1255534.312255859375
1254174.7165622711182
1252854.8381690979004
1251567.911600112915
1250320.5760364532471
1249126.5630626678467
1247990.3438396453857
1246896.0779399871826
1245816.403959274292
1244729.150369644165
1243624.6666221618652
1242500.7634429931641
1241351.8416233062744
1240162.5839958190918
1238914.8576946258545
1237601.2640972137451
1236230.5763778686523
1234822.4538764953613
1233398.894063949585
1231976.344820022583
1230562.2456932067871
1229155.7361373901367
1227751.976448059082
1226349.3474464416504
1224953.0622634887695
1223571.7772731781006
1222214.4863681793213
1220889.1429843902588
1219599.6846885681152
1218345.7733535766602
1217124.8359050750732
1215934.6698093414307
1214776.7511291503906
1213657.2639999389648
1330600.7546730041504
1328541.8532276153564
1326463.236795425415
1324396.2636985778809
1322368.2392864227295
1320401.4855098724365
1318513.2543869018555
1255762.2843894958496
1254404.0496482849121
1253084.3788623809814
1251796.7537975311279
1250548.2850666046143
1249353.0538692474365
1248215.5254573822021
1247119.7938690185547
1246038.4250392913818
1244949.0268898010254
1243842.0146446228027
1242715.3264141082764
1241563.378755569458
1240370.6871700286865
1239118.940881729126
1237800.5938243865967
1236424.597692489624
1235011.2531185150146
1233583.1901435852051
1232157.0143775939941
1230739.960521697998
1229331.0622024536133
1227925.2381191253662
1226520.6589260101318
1225122.6580581665039
1223740.1595134735107
1222382.2927722930908
1221056.7716388702393
1219767.3495559692383
1218513.7043495178223
1217293.1240062713623
1216103.4766635894775
1214946.228328704834
1213827.3706970214844
1212751.1861438751221
803129.1315975189209
802318.46633911132812
801507.62943267822266
800699.48148727416992
799897.84782981872559
799103.3838939666748
798318.36387634277344
797539.46551704406738
796767.11789512634277
795997.40768814086914
795226.00874137878418
1111439.6837692260742
1110273.5123672485352
1109116.0616931915283
1107959.6391372680664
1106798.393518447876
1105631.7614727020264
1104462.237361907959
1103292.4953536987305
1102123.7853145599365
1100955.7681560516357
1099787.8239936828613
1098621.9266910552979
1097462.2670001983643
1096312.3623180389404
1095174.3197002410889
1094049.0321559906006
1092935.3839912414551
1091832.1248760223389
1090740.9976959228516
1089668.151252746582
1088620.2109222412109
1087599.1816844940186
1086599.40891456604
1085610.5888710021973
1084623.9918899536133
1083636.9494876861572
1082652.3124656677246
1081672.0363063812256
1080694.5323925018311
1079716.3868141174316
1078735.1533584594727
1077749.6725177764893
1076758.7060661315918
1075760.1733226776123
1074750.7584953308105
1073726.6305999755859
810466.22495651245117
809621.15666580200195
808780.31055068969727
807944.83134460449219
807116.6167163848877
806296.86498069763184
805485.11554718017578
804679.24513816833496
803876.32653045654297
803073.57550048828125
802269.32114219665527
801463.21344757080078
800656.66665649414062
799851.42106628417969
799050.24337387084961
798253.59951019287109
797463.9733829498291
796679.62806129455566
795902.32226181030273
795130.54256248474121
794360.88239288330078
1111604.3183135986328
1110437.2967338562012
1109280.3124618530273
1108121.0814037322998
1106952.0797119140625
1105776.0420074462891
1104602.187629699707
1103437.3103847503662
1102281.6850452423096
1101130.0053272247314
1099977.1837844848633
1098824.2120056152344
1097678.0797100067139
1096546.2973079681396
1095432.9400005340576
1094337.7342014312744
1093255.4560604095459
1092179.6631259918213
1091108.4699535369873
1090047.207820892334
1089005.0720043182373
1087987.6941833496094
1086991.7562160491943
1086006.0298118591309
1085019.3968830108643
1084027.6082210540771
1083033.0539703369141
1082038.5033473968506
1081043.9160957336426
1080047.0924243927002
1079045.8219985961914
1078038.1589012145996
1077022.0264720916748
1075995.2541904449463
1074954.7944755554199
1073897.5595245361328
809665.90581703186035
808812.82225227355957
807964.83223533630371
807123.26047134399414
806290.33525276184082
805467.58509063720703
804654.81004905700684
803850.01694297790527
803050.17880249023438
802252.08158493041992
801453.29914474487305
800652.59923362731934
799850.42108726501465
799047.70258331298828
798246.542236328125
797447.65083312988281
796654.13680076599121
795865.90856170654297
795085.72487640380859
794313.19393157958984
793543.73650550842285
1110777.6944255828857
1109621.121940612793
1108456.6099414825439
1107276.4241027832031
1106089.429292678833
1104913.124792098999
1103758.9189720153809
1102624.4746227264404
1101497.0389652252197
1100365.2231197357178
1099229.2775974273682
1098100.284029006958
1096990.7256832122803
1095906.0959548950195
1094843.3915843963623
1093792.7002906799316
1092742.7386646270752
1091688.1347064971924
1090633.8590850830078
1089592.6769046783447
1088574.8668384552002
1087579.6315174102783
1086594.4007511138916
1085604.2285442352295
1084601.7341556549072
1083588.2015190124512
1082568.88401222229
1081547.3293342590332
1080524.4784469604492
1079498.3809471130371
1078464.8406791687012
1077419.244514465332
1076358.396297454834
1075280.6061592102051
808048.00979042053223
807191.05553436279297
806342.02723693847656
805503.7483959197998
804678.13848876953125
803865.15603256225586
803062.6940803527832
802267.32962036132812
801475.12518119812012
800682.63066482543945
799887.49837684631348
799089.23707389831543
798288.50238227844238
797487.74166870117188
796688.68700408935547
795895.66779518127441
795109.98297500610352
794335.4052848815918
793571.83011627197266
792814.74523162841797
1111174.6335487365723
1110017.1363658905029
1108848.613109588623
1107663.4832973480225
1106475.836893081665
1105308.2505702972412
1104173.9579181671143
1103067.7328586578369
1101971.1868019104004
1100868.3987884521484
1099758.769983291626
1098656.2308006286621
1097576.5079002380371
1096525.8627853393555
1095498.3372936248779
1094479.7297592163086
1093454.9182052612305
1092416.562572479248
1091370.6880702972412
1090333.4875469207764
1089318.7762908935547
1088326.2588443756104
1087341.2273578643799
1086345.3852767944336
1085328.9006233215332
1084293.277250289917
1083246.8077373504639
1082197.4030475616455
1081148.0624847412109
1080095.5992240905762
1079032.8275375366211
1077953.1122875213623
1076853.6621055603027
1075735.8477840423584
807353.9652156829834
806485.70830917358398
805627.50273895263672
804783.1605110168457
803954.90954780578613
803142.40116500854492
802342.82664108276367
801551.87159156799316
800764.74349403381348
799977.26352119445801
799186.49950408935547
798391.48537635803223
797592.70148086547852
796792.85143661499023
795994.81067848205566
795204.26813697814941
794424.02535057067871
793658.26101875305176
792906.29019165039062
792161.8653621673584
1110428.6207504272461
1109252.0007629394531
1108064.3865566253662
1106882.7958641052246
1105729.3361434936523
1104614.8718852996826
1103532.4631175994873
1102463.0834903717041
1101390.5312194824219
1100313.5013847351074
1099245.1673622131348
1098201.3072147369385
1097187.2756290435791
1096194.7560882568359
1095206.7176914215088
1094205.9659976959229
1093185.1861972808838
1092152.5442123413086
1091126.7376441955566
1090121.7431640625
1089134.8963508605957
1088149.1339244842529
1087144.8913269042969
1086112.7069892883301
1085056.3566246032715
1083987.0460090637207
1082914.6546497344971
1081841.3799571990967
1080762.328104019165
1079669.5900936126709
1078557.586462020874
1077425.3498840332031
805899.36311531066895
805031.51440620422363
804180.43331336975098
803348.82025718688965
802535.89118576049805
801737.85955810546875
800949.36030006408691
800164.96483612060547
799380.38408279418945
798593.01106262207031
797802.26981163024902
797008.92657852172852
796215.57314300537109
795424.99768829345703