/*--------------------------------*- C++ -*----------------------------------*\
  =========                 |
  \\      /  F ield         | OpenFOAM: The Open Source CFD Toolbox
   \\    /   O peration     | Website:  https://openfoam.org
    \\  /    A nd           | Version:  12
     \\/     M anipulation  |
\*---------------------------------------------------------------------------*/
FoamFile
{
    format      ascii;
    class       volScalarField;
    location    "0.0135";
    object      rho;
}
// * * * * * * * * * * * * * * * * * * * * * * * * * * * * * * * * * * * * * //

dimensions      [1 -3 0 0 0 0 0];

internalField   nonuniform List<scalar> 
106891
(
1.1498744533159415138
1.1497820810311478734
1.1497727130993982136
1.1498507173888345978
1.1500092280746483375
1.1502300604541535467
1.150487908025748407
1.1507523917031245997
1.1509960767417692917
1.1511894105325835014
1.1513236222136173925
1.1608322069661058951
1.1608168456769476506
1.1607784754644330238
1.1606853786083131119
1.1605334458088818472
1.1603501697362585965
1.1601882117143922368
1.1601006685206805003
1.160116082119694525
1.1602207588627382329
1.1603587701392303888
1.1604590615297929457
1.160472807148523966
1.1604021983907828464
1.1602957490189307332
1.1602151384351009344
1.1602003534517764116
1.1602463299049787793
1.1603203388706326837
1.1603929950949125605
1.1604656606589531798
1.1605613381969044351
1.1606901807044198716
1.1608226229099187776
1.1608939313733788179
1.1608383858032449432
1.1606288653252927467
1.1602920723076248777
1.159892475733762085
1.1595084468151610757
1.1592025364818208111
1.1590129104570459084
1.1589487123717778783
1.1589950380279698816
1.1591168998582885852
1.1592626520502380405
1.1593782455252761299
1.1594289885361181991
1.1508815960626190833
1.1508645189174795398
1.1508177877213969786
1.1507356078345738482
1.1506137810583605408
1.1504536826881821554
1.1502630664332642585
1.1500590408671023113
1.1498634573011305982
1.1497030853492307134
1.1496024574443972632
1.1495810938271076029
1.149647475226279969
1.1497993801895523003
1.1500217421935519102
1.1502885731530174684
1.1505713342036412161
1.1508319393449137902
1.1510495819186474797
1.1511909827045654353
1.1607105714473489044
1.1606111932289764344
1.1604746980993441152
1.1603129444455972941
1.1601574606269311474
1.1600515336608043793
1.1600314941654481515
1.1601093116582117393
1.1602585899165913652
1.1604182550758541659
1.1605164949841415556
1.1605096421720026978
1.1604090547669116962
1.1602707429314282894
1.1601640606459722171
1.1601273608566977646
1.160152052038461612
1.1602008600032449603
1.1602439199892722321
1.160286171246520448
1.1603596908551383482
1.1604866365029018471
1.1606467246382343728
1.1607725539254525327
1.1607869977028393293
1.160644071433738711
1.1603516827047926085
1.1599670363005474272
1.1595716421075894509
1.1592405822464924015
1.1590249278417812384
1.1589433808893745415
1.1589873759148003884
1.1591233371107754202
1.1592947152158448176
1.159440177700845398
1.150511680467523945
1.150481132903365733
1.1504321829361519036
1.1503598295578505439
1.1502580990964434982
1.1501246316234705613
1.1499628496623066631
1.1497852570505600056
1.1496115373308080088
1.1494663247382281845
1.1493750426883879712
1.1493573788340105679
1.1494262681304148188
1.149579388701104099
1.149807968009821213
1.150084696536298301
1.1503866751555220649
1.1506700972298857799
1.1509187772237563507
1.1510909215162228314
1.160783775902943793
1.1605983273482325391
1.1603994052298083339
1.1602151083049478952
1.1600755046963457939
1.1600060536128640187
1.1600215091434389336
1.1601155086664698413
1.1602530413569240864
1.1603823292480710538
1.1604517496615465166
1.1604329347618080881
1.1603400390932885333
1.1602237294494661679
1.1601428905206467856
1.1601251040714977147
1.1601611800607354308
1.1602168364377429821
1.1602658639126435247
1.1603093184607875532
1.1603702247481786358
1.1604683046360246834
1.1605886228522781511
1.1606775129521693657
1.1606660146605736195
1.1605111044718485758
1.1602172738218401449
1.1598413210943248064
1.1594637014775304173
1.1591591143875292769
1.1589777232709905785
1.1589352931115328715
1.1590169857984446988
1.1591858668496608509
1.1593829930190062694
1.1595402726578822872
1.1501529643671808412
1.1500848287292078087
1.1500091108306154108
1.1499221335807687794
1.1498197871192219477
1.1497018583898781507
1.149574023510475218
1.1494497635050786588
1.1493458929730546725
1.1492839233316911596
1.149278244788597636
1.1493448089154423286
1.149480795688159418
1.1496859814266033872
1.1499352446729622645
1.1502164289357734717
1.1504878306200907456
1.1507381512617391728
1.1509272325372981172
1.1605887632601741277
1.1602998671981186174
1.1600853386061631412
1.1599705107375193336
1.1599566445554165828
1.1600246640595159864
1.1601427431577433502
1.1602662210451741842
1.1603531104816533492
1.1603788552886737939
1.1603434623582176144
1.1602658102549932018
1.1601820363377217671
1.1601258460713010923
1.1601112058174061215
1.1601301872657157066
1.1601617121822138667
1.1601903194081926163
1.1602188854951334118
1.1602612796049469601
1.1603321713682872574
1.1604234921447986739
1.1604991460070916975
1.160500982704725681
1.1603844981161868244
1.160140925679861823
1.1598080515087789699
1.1594526679873158326
1.1591465273867540553
1.1589440462424041023
1.1588742481322016342
1.1589350172459151889
1.1590991474442013942
1.1593099498036505413
1.1499965541389172152
1.1499364004657974814
1.1498645280132733237
1.1497842362653980519
1.1496956077710163147
1.149597188615647525
1.1494880623540661979
1.1493718116919526828
1.149258065456670197
1.1491600406224879993
1.1490966935436242036
1.1490813313545626961
1.149130071381266438
1.1492422259937968843
1.1494213274545450609
1.1496470509240279689
1.1499119032311131416
1.1501803360875013649
1.1504447252913605482
1.1506655111776160627
1.1606976560283290834
1.1603367345954351819
1.1601091281048363513
1.1600309830061721339
1.1600742154309713339
1.1601853000446156194
1.1603056490863530303
1.1603887519066380385
1.1604061464208772492
1.1603614608196624047
1.160283052271566806
1.1601998959201571537
1.1601316224775326535
1.1600843395662419066
1.1600561962883619849
1.1600385340764556297
1.1600289589829748671
1.1600255757493143083
1.1600349368907676428
1.1600639263742842378
1.1601182761526431797
1.1601909195295403432
1.1602590072121703457
1.160278338096722095
1.1602042559255583143
1.1600165517224201306
1.1597342767838219046
1.1594140940111106186
1.159125472704602311
1.158928047249751847
1.1588557967337052013
1.1589139907986287792
1.1590759449419731908
1.1496660193901369063
1.1495841572222071925
1.1494933959031301551
1.1493978791791759075
1.1493007946713449385
1.1492044850113694032
1.1491130187045197619
1.1490335774592987939
1.1489756482736932508
1.1489512796181511334
1.1489695862210420607
1.1490396590956120093
1.1491609522644161689
1.1493319450936976267
1.1495399566959687565
1.1497738288382213234
1.1500120211085105293
1.1502464476895875034
1.150447799602158705
1.1605363436402158506
1.1602882644487348962
1.1602169436404607961
1.160273728348150124
1.1603824457678448834
1.1604712861439716587
1.1604938124428751944
1.1604392346790686208
1.1603298100976371376
1.1602079391987261126
1.1601117136524521367
1.1600506849181690949
1.1600122246992783381
1.1599771064569290857
1.1599341671809038079
1.159888083528914926
1.1598489847984230217
1.1598294546149017226
1.159834759091869838
1.1598645065953063771
1.1599148938474788118
1.159974268460912894
1.1600146708485974401
1.1599946691934148735
1.1598852086934512418
1.1596871580021552717
1.159439739686503934
1.1592018147302012299
1.1590314151987535229
1.1589631106716691278
1.1589988777635125139
1.159108401713399239
1.1494487713683267938
1.1493582930958161636
1.1492594609615331969
1.1491620748478545977
1.1490742216244218543
1.1490023344850941456
1.1489511723706207214
1.1489242515779352072
1.1489252738972925982
1.1489573340378751443
1.1490218323419809643
1.1491194498789276679
1.1492466598421802182
1.1493975439320121001
1.1495647213216255711
1.1497387240334104863
1.1499096607041223717
1.15007344349590368
1.1502124621410483307
1.1607098682013174962
1.1606632774774712225
1.1607097027245565357
1.1607712505917799906
1.160778037239337257
1.1606949978213001451
1.1605345060737197738
1.1603357864751155937
1.1601445306960826986
1.1600016370971493185
1.159918869281908016
1.1598772355959727776
1.1598492413382024413
1.1598166846051618517
1.1597751544010836966
1.159737730849176085
1.1597185726200196498
1.159729606129969115
1.1597726249872459814
1.159845671133130196
1.1599326957418805151
1.1600037311970594622
1.1600130025364672193
1.1599239422084917095
1.1597319349714123593
1.1594716615593338993
1.1592067173481925835
1.1590015551200594235
1.158890837869270829
1.1588752477517716422
1.1493475170079623382
1.1492549136751506467
1.1491653009843314504
1.1490888824533196377
1.1490324003137448727
1.1490000221973100114
1.1489928975261938238
1.1490103297278198013
1.1490514855751234879
1.1491133833890909699
1.1491943120899805741
1.1492893711810401314
1.1493972067084763378
1.1495122611233927756
1.1496332122171388779
1.1497519515087664121
1.1498731988216559508
1.1499770077903361809
1.1610720326190009377
1.1610448088199436523
1.1610207205789417895
1.1609595215147705538
1.1608378681026363388
1.1606554768529995236
1.1604351163075108389
1.1602060985046811492
1.1599977183370258071
1.1598279153916257744
1.15969769832180436
1.1595944841545839932
1.1595084585461326032
1.1594392616776947325
1.1594006640421898879
1.1594027692260937545
1.159452881392195378
1.1595443814199017929
1.159661948806440801
1.1597762734748791047
1.1598520651545070059
1.1598474233811135736
1.1597395310830289628
1.1595324591885554089
1.1592686213591154587
1.1590086455696200218
1.1588130101175575515
1.1587015917565264278
1.1493422255547793842
1.1492774780447343463
1.1492194507680650872
1.1491759435282229429
1.1491516975556197444
1.1491474476536176486
1.1491614146978077482
1.1491893489250639693
1.1492285102961590226
1.1492745466170704027
1.1493282294455506864
1.1493860260738752999
1.1494523497936592893
1.1495238831240393029
1.1496059016960160637
1.1496904462651458267
1.1497860080367907631
1.1498706605764255073
1.1613964900629745181
1.1612563420110029178
1.1610972750542656318
1.1609152173999974789
1.1607051326464763452
1.1604645079733935109
1.1602082895496272918
1.1599629518745078194
1.1597495497862431169
1.1595749534180592732
1.1594341938410073212
1.1593205811212732304
1.1592361168176812392
1.1591940181172495361
1.1592083778053767773
1.1592849094197144044
1.1594120503129032862
1.15955995406250989
1.1596874054998900228
1.1597496022064115451
1.1597108811297918152
1.1595581044358114209
1.159309498095227875
1.1590124340748075848
1.1587288758437364056
1.158505409712385914
1.1583653390115895565
1.1493934941408074923
1.1493894472981220911
1.1493971474870368077
1.1494123141040402114
1.1494297743003012435
1.149444230619218299
1.1494517883394088642
1.1494520656359830113
1.1494464509610735625
1.1494418399193491176
1.1494430667186048556
1.1494594432989369004
1.1494915666920926256
1.1495460199462501638
1.1496135421633759677
1.1497021387195964781
1.149785582640800774
1.1616434376454700672
1.1614575720360165167
1.1613012926475463349
1.1611663889196037758
1.1610372761482208315
1.1608941813779383168
1.1607216763356458245
1.1605130214979388903
1.1602680041606432404
1.1599973498557270002
1.159712851168964054
1.159428652022983508
1.1591697797797522185
1.158972511516241255
1.1588691766977496922
1.1588759259173098126
1.1589815729618000439
1.1591515843165709487
1.159334890554991393
1.159475299879255461
1.1595198608273438179
1.1594412304281840331
1.1592401744064508851
1.1589521718275388462
1.1586330938105424693
1.1583452635085809135
1.1581279214315152171
1.1495277781119039862
1.1495841433655176189
1.1496489223377579503
1.1497077291930881682
1.1497496012179797553
1.1497675818355939104
1.1497631091868161235
1.1497408274244831361
1.1497145197084337465
1.1496927767571125667
1.1496911162394394257
1.149708491544642941
1.1497534461794429728
1.1498109197324966058
1.1498869723790339226
1.1499540790395732515
1.1615873522208592927
1.1614721694977874211
1.1613885130568359916
1.161302969679970376
1.1611889103585302241
1.1610367727542001415
1.1608509670617770393
1.1606491800199654207
1.1604306994363495775
1.1601729828146787327
1.1598613456202533367
1.1595098787554107833
1.1591641882696470667
1.1588826115041661602
1.1587094153910033612
1.1586589131634814631
1.1587104329970245864
1.1588263074291198507
1.1589626177831302556
1.1590726836498914665
1.1591128530387195816
1.1590510303795797942
1.1588760024300310825
1.1586115323866348348
1.1583024573462428197
1.1580075495568691313
1.1577733646243841825
1.1576240181690897746
1.1499532052238941038
1.1500483034330155618
1.1501184409407307907
1.1501502202182050105
1.1501366402633221853
1.1500831144388306004
1.1500002244212366165
1.1499089492022631642
1.1498251599007875967
1.1497695467688902049
1.1497479181484069333
1.1497691735200774588
1.1498228152788501077
1.1499054504186405623
1.1499982355397952993
1.1613480704249874442
1.1613241027943013162
1.1612817516562501385
1.1611860587052085236
1.1610378687284241828
1.1608696184561975162
1.160705358203960369
1.1605357433747445217
1.1603203990901553855
1.160023325971270669
1.1596513964660204454
1.1592575684012733639
1.1589134809898817835
1.1586706285995886923
1.1585425704429663796
1.1585100639123204758
1.1585441950492259
1.1586155021702255752
1.1586907795066136995
1.1587330109838471781
1.1587026981542678516
1.1585765082158301365
1.158359113241866245
1.158087787340113417
1.1578119047267314556
1.1575788412508940528
1.1574200168899744234
1.1502989400131986564
1.1503637851441477213
1.150383203152330891
1.1503543432199114793
1.1502855371154652175
1.15019186897323622
1.1500940207569281259
1.150010932675830988
1.1499599666450217583
1.1499473049314641315
1.1499768114066108993
1.150034883434548183
1.1501153836410729081
1.1501949139131315558
1.1611241584493876555
1.161125367885221582
1.1610527629555644769
1.1609171017303612228
1.1607640235585550137
1.160621376430813978
1.1604742286992706379
1.1602782910250328818
1.1599948133418445106
1.1596311209384695395
1.1592396591218496749
1.158888601342069169
1.1586236002045045002
1.1584509718639846021
1.1583519882013804114
1.1583082721646089652
1.1583062374527881566
1.1583272787157197214
1.1583442212758943146
1.1583187640535290708
1.1582196935997337572
1.1580441325997932189
1.1578191239008832625
1.1575866775220138294
1.1573891298691081353
1.1572587674756102949
1.1504708681712916274
1.1504838736226483675
1.1504546342493107147
1.1503934254054473119
1.1503159980761792358
1.1502436618782465594
1.1501920015387807616
1.1501776167336219547
1.1501998889445694818
1.1502633613167978499
1.1503458723372410599
1.1504447871052640995
1.1505288889417788489
1.1609626851894103705
1.1608953784003244181
1.1607798197791039385
1.1606626266359594268
1.1605697896023337012
1.1604777532726868738
1.1603332103658732244
1.1600938950561705543
1.1597638188618033528
1.1593870537315360547
1.1590204515272213293
1.1587037763456962125
1.1584472173035245124
1.1582452165131951194
1.1580952929701331389
1.158000316323452461
1.1579606802081257033
1.157956042622812376
1.1579485009855554623
1.1578997148412148999
1.1577928695672790038
1.1576368637616132329
1.1574617502215087672
1.1573058713668624709
1.1572056686119238655
1.1505756397125168622
1.1505390924769507421
1.1504813298225460283
1.1504180925203206787
1.1503702124360963843
1.1503509501879911614
1.1503746647684129911
1.1504361543562151571
1.1505377030066583632
1.1506536743870778849
1.1507806664928152962
1.1508867520460654976
1.1607203779184342984
1.1606106485204072953
1.1605168659844142809
1.1604559473036841766
1.1604037139970613257
1.1603098529108137882
1.1601315603235398122
1.1598640778558340081
1.1595387204038363205
1.1591964020000935509
1.1588668312945269445
1.1585603551329881622
1.1582813111984839871
1.1580402336764221705
1.1578572123816668338
1.1577470723791911666
1.1576973775644183728
1.1576803824588859371
1.1576558708819488785
1.1575976956011699848
1.157499080331131136
1.1573761043571197948
1.1572652189594567762
1.1571996440675551554
1.1604071957972077467
1.160351936584854915
1.1603284819512549308
1.1603103576410729314
1.1602509712563502386
1.1601120598107583781
1.1598828808759356068
1.159587823772017634
1.1592639593676430376
1.1589377365683921628
1.1586168210885909868
1.1583055042951164726
1.158015535863041956
1.157772829770293832
1.1576007717137424269
1.1575083301536455149
1.1574706129082841244
1.1574569890595218791
1.1574341468553994705
1.1573868399669720031
1.1573249529229052701
1.1572743170277850489
1.1572624139042146929
1.1601893226425781247
1.1601768932846996396
1.1601414820782498527
1.1600421441151402835
1.1598591853318704903
1.1596073539725126889
1.1593183158409263722
1.1590156395294992642
1.1587045097970356533
1.1583838681229674528
1.158061717581941652
1.1577673919651709777
1.1575344169608721145
1.1573845419822557101
1.1573131813018293634
1.1572929188071847673
1.1572894981908867784
1.1572812482266832124
1.1572699012423386389
1.157270835571367007
1.1573066415652641936
1.159776754714512359
1.1595706970067927166
1.1593273751570842833
1.1590719688487478578
1.1588067727079041092
1.1585201750184155323
1.1582098528362214651
1.1578985486607640265
1.1576243875016918317
1.157421998524069684
1.1573042753370641478
1.1572553859803509368
1.1572411013664249957
1.1572401203841964357
1.1572511649001075984
1.157284307541273094
1.1573559776092978701
1.1588674786544621576
1.1586254369068207382
1.1583472624485831037
1.1580447731458929361
1.1577558368242812925
1.1575238529012079614
1.1573716995671263774
1.1572905056786413347
1.1572556435937784158
1.1572499251023409261
1.1572677357413951871
1.1573221504656341363
1.1574186439556450878
1.1587016609656854982
1.1584804477002419443
1.1582184108277935319
1.1579477320821611741
1.1577117005888262202
1.1575377113689933051
1.1574247590788007134
1.1573586470697008188
1.157325094314331615
1.1573261193417243575
1.1573727839494114544
1.1574669573494085206
1.1656207239926361652
1.165645627771579651
1.1657704613123569537
1.1659220493887580972
1.1660346471604869922
1.1660948629146312694
1.166127056942300344
1.1661501969656049571
1.1661434179519416521
1.16605468302365467
1.1658419836688669324
1.1655069176316945612
1.1650978606975936902
1.1646857132091468223
1.1643374661986962693
1.1640951464378650471
1.163968841183901537
1.1639311130924949733
1.1639341872246040666
1.1639377163272581761
1.1657592453722303016
1.1656296278238691411
1.1656207782924872252
1.1657152556251921816
1.1658379122046886867
1.1659255886708614902
1.1659691047533864428
1.166005413735911711
1.1660627168600139481
1.1661157065814762301
1.1660929712892467158
1.1659308545117998968
1.1656200503275202518
1.1652176338258326549
1.1648129205528299224
1.1644828920777314796
1.1642612219921915084
1.1641373548753521927
1.1640671372872997136
1.1640039360883365216
1.1639255619110451256
1.1638440324527465908
1.1661182290857909916
1.1659678545200300448
1.1657654244547503986
1.1656163423922805134
1.1655919427968968183
1.1656739490788197156
1.1657764311012703828
1.1658300231201603747
1.1658278586364401175
1.1658228172093685338
1.1658611423676368268
1.1659246999915560128
1.1659325653919643262
1.1658028712334198573
1.1655159371062795426
1.1651326499419483174
1.1647546636148191634
1.1644639799126215163
1.1642845237983185935
1.1641831470213122035
1.1641014407434557842
1.1639934774352318492
1.1638532943986321655
1.1637123174327523856
1.1636199488593284013
1.1636205230716394343
1.166063389031066766
1.1660156691149143882
1.1658180581432933121
1.1655542465452322087
1.1653509461651851975
1.1652932907500308524
1.1653604378339768033
1.1654445834744493471
1.1654489241616836637
1.1653541792743074001
1.1652215669426937428
1.1651220155553916324
1.1650644276213073525
1.1649842297044759043
1.1648017557393948174
1.1644994424954626666
1.1641420219377349721
1.1638355966782476525
1.1636577839996347095
1.1636159285841864985
1.163652228849019199
1.1636908863633030897
1.1636836143235074204
1.1636304698613082476
1.1635656837881411807
1.1635242047913099128
1.1635249376284038103
1.1635660421891369509
1.1656436828861580501
1.1657260458644491674
1.1656085635698696379
1.1652984633497447398
1.1649120967361867862
1.1645965851549566761
1.1644352739074936842
1.1643876608312331289
1.1643193232502491163
1.1641167266557594928
1.1637750934119650559
1.1633942727686585883
1.163093295400825733
1.1629178732592360124
1.1628137774183409103
1.1626898801172071973
1.1625137769647551078
1.1623409736854275476
1.1622694525818637601
1.1623624758712058913
1.1625975184601287093
1.1628775241380384653
1.1630910380092505108
1.1631715377463749395
1.1631184177704312344
1.1629744859015265224
1.1627820276656175569
1.1625663091781763825
1.1623418417863471408
1.1621335691135477042
1.1644009494572367114
1.1644520874050747761
1.1644157829487662426
1.1641931296757397352
1.1637841772714476729
1.1633042530787707225
1.1629095296303473273
1.1626951597759225265
1.1626288466623222462
1.162573949273983942
1.1624050122230511484
1.1621092494522387017
1.161785279439850882
1.1615536852561965109
1.1614597538024529211
1.1614382874491084863
1.1613814867402101338
1.1612435247164243357
1.161078355249312688
1.1609861232987386259
1.1610340825818994404
1.1611990362329136506
1.1613839881442054036
1.1614863889671804831
1.1614586544997047568
1.1613212645286759006
1.1611278183214359672
1.1609145932333446716
1.160687086499403442
1.1604448995438820802
1.1602164613441965368
1.1600619755026533308
1.1633618496780564477
1.1634673050950958828
1.1634644416472046391
1.1632433723306365714
1.162802690062336719
1.1622681564471633031
1.1618142502957495843
1.1615495304274081612
1.1614472781427311876
1.1613661996281217093
1.1611726018339909583
1.1608537329306443109
1.1605185029789328865
1.160296236803205705
1.1602316520096327412
1.1602467144637285124
1.1602172030726003449
1.1600888510954723287
1.159922488241341032
1.1598313309643910607
1.1598894877914371904
1.1600696110120662929
1.160261397452188703
1.1603531422268127393
1.1602991571016705308
1.1601317387411576032
1.1599181445237634058
1.1597009189233780102
1.1594795051126807195
1.1592466156495850882
1.1590314384754705213
1.1589018400041597445
1.1589187950168480246
1.1616855008189133081
1.1617886075035053217
1.1618152976957667466
1.1617259366440575441
1.1615122370577004585
1.1612838676982717434
1.1629046144370458471
1.1630470935062025006
1.1630760543672262752
1.1628751684460514326
1.162443253086582029
1.1619098076734217795
1.1614587065675017197
1.1612054784960603726
1.1611235755230651101
1.1610650060381126902
1.1608889077260895473
1.1605815503553489343
1.1602586899898603701
1.1600585634491582532
1.1600265048916704735
1.1600800459150739652
1.160084473242418257
1.1599804748859885439
1.1598317272234293096
1.1597616822598615371
1.1598483969225703571
1.1600635767290738976
1.1602886444078066575
1.1604057924490143172
1.1603704138384653977
1.1602224608515057103
1.1600360348873730576
1.1598538010090992945
1.1596671621704899291
1.1594601449471126919
1.1592614410019783655
1.1591476639223936562
1.1591860363429633551
1.1593718579688685466
1.1606374120625617685
1.1608537648271104459
1.1609549606216384987
1.1609784563724556694
1.1608775926687491253
1.1606462985720247261
1.1604086354651481638
1.1632199879345717086
1.1634036322537422148
1.1634702106722787374
1.1633001891596475019
1.1628941565347885589
1.1623841419301719213
1.1619590567210569265
1.1617364447491131951
1.1616891515622571607
1.1616651473762023006
1.1615192780867882316
1.1612378673306387178
1.1609414251898719783
1.1607715787952090913
1.1607732840747559955
1.1608625087645170204
1.1608988938738702412
1.1608229758322103908
1.1607005330729414094
1.1606608699370810633
1.1607829937899161177
1.1610359250193025282
1.1612962554112620239
1.1614425745739074269
1.1614316304297380711
1.1613078481606555759
1.1611483378346347806
1.1609951745825672909
1.1608361604533317113
1.1606518438927997394
1.1604718249545880049
1.1603785060560245501
1.1604424044746117772
1.1606599162554229743
1.160922107827697447
1.14931275610556205
1.1491145910875253389
1.1489672048892587419
1.1488826984603139891
1.1488663794246443128
1.1489243136863538375
1.1490533893139800448
1.1492507376787368667
1.1495009076712794371
1.149790739921046967
1.1500980460475347389
1.160333894163583901
1.1602285596829369219
1.1601010925661350282
1.1599910660755654579
1.159916078128241157
1.1598704377790107767
1.1598439140064105146
1.1598367800308386766
1.1598608511781272057
1.1599253472348389771
1.1600183062415909685
1.160106770502378648
1.1601585100684430607
1.1601633708040921533
1.1601374829876915928
1.160109717874715507
1.1600907234712276583
1.1600644111617126608
1.1600029283333337382
1.1598950049191218969
1.1597627140574542359
1.1596507279532126677
1.1596013734642933724
1.1596246693634411074
1.1596893945020221306
1.1597325321358065153
1.159692571790752913
1.1595385039236860703
1.1592841166042300305
1.1589799298355274448
1.1586953100635513092
1.158493736187404588
1.158413738505000401
1.1584571290334682026
1.1585914752648507342
1.1587570420366575252
1.1506182877329214076
1.1506419391795361662
1.1506222206834708643
1.1505548830343059752
1.1504401626060225539
1.1502824875334662913
1.1500898690027272497
1.1498720085913727296
1.149641011355471365
1.1494097463661412384
1.1491916406868025735
1.1490021170386262028
1.1488554390731087196
1.1487658047697522079
1.1487429914995634928
1.1487951812357508619
1.148921948801934656
1.1491210884371940715
1.1493743595127074997
1.1496721061087828986
1.1499808745078736738
1.1602876494236096239
1.1602534270704170094
1.1602388946834154559
1.1602447627685312792
1.1602517441154247546
1.160227459546834039
1.1601601713144995554
1.1600705828686905807
1.1599984692541616127
1.1599785624879115353
1.1600160273506416875
1.1600768195822674933
1.160115410689247506
1.1601016466578191189
1.1600440662208788556
1.1599743236372253019
1.1599188446865700275
1.1598821965128012224
1.159849771023556686
1.1598030698464047994
1.1597444731921264793
1.1596931150210789685
1.1596751153852551397
1.1596956359627577093
1.1597331427807302529
1.159740485793248288
1.1596707122816551916
1.1594986949776240337
1.1592353215958302037
1.1589260935075620385
1.1586376745400868149
1.1584347226464482006
1.1583609631372615567
1.1584183229004079152
1.1585699287950201875
1.1587502566720491171
1.150376564906592014
1.1503448290703375267
1.1502801067294365911
1.1501826719509600228
1.1500552078432608738
1.1499010279490065045
1.1497253833269041046
1.1495337654209523137
1.1493342115822158256
1.149135749185209221
1.1489502092030956515
1.1487915533634174281
1.1486750162237182593
1.148616551855448753
1.1486271178303790741
1.1487157433131018891
1.1488788593681014127
1.1491142100949405247
1.1493947011726151075
1.1497147405705443468
1.1500239562000447169
1.1603850078854471839
1.1604706558392952065
1.1605839385828924382
1.1606680701005021028
1.1606698778380570847
1.1605755236445540746
1.1604145457875820746
1.1602486229061534928
1.1601360956715556227
1.1600959006784019589
1.160098559641846272
1.1600944235660715087
1.1600467222309565063
1.1599554411888612915
1.1598518890688400695
1.1597783507651109325
1.1597551348312702402
1.1597735291148847381
1.1598054311833452257
1.1598274644624906315
1.1598280705807164637
1.1598081746661468294
1.1597702594367289564
1.1597103015282699268
1.1596137955734209246
1.1594619692366912034
1.1592434537756213242
1.1589635200731152054
1.1586567100503943895
1.1583789159509128019
1.158190200467822395
1.1581335434344717239
1.1582132674963800945
1.158391171962490418
1.1500848521828044291
1.1499951612074026386
1.1498785835878924111
1.1497400961074766279
1.1495847114743182882
1.1494175411716329727
1.1492425102560375194
1.1490648279521054054
1.1488916233755841478
1.1487329898337192979
1.1486032615218215724
1.1485166590706088474
1.1484907396100112464
1.148534506221701168
1.1486578654798578203
1.1488535883178470076
1.1491177356517694452
1.1494196356456265473
1.1497515551714634352
1.1500605393437577373
1.1605413668096442592
1.1607139539355464386
1.1608896026485506781
1.1609923966343320689
1.1609715636050754739
1.1608190520768248977
1.1605809760126764019
1.1603395820560209462
1.1601665917891814672
1.1600865732403196073
1.1600697899122398571
1.1600573300637448959
1.1600047979814998023
1.1599015366673317562
1.1597755673442695645
1.1596778317577449702
1.1596475143741376002
1.1596904180055083167
1.1597773378125788568
1.1598615812781145618
1.1599000409889708152
1.1598648517395595547
1.1597541059129938823
1.1595847046042215833
1.1593791147351220072
1.1591499853926219288
1.1589007131755206803
1.1586336554099463392
1.1583678724259633963
1.1581424805027669134
1.1580054134903647878
1.1579907897616017465
1.1580998711974543891
1.1582929671939399263
1.1498761000048551839
1.1497780808564064259
1.1496569468687249937
1.1495192728492729106
1.1493708233411179531
1.149215977082243878
1.1490581155283137171
1.1489008095146886479
1.1487509971196354641
1.1486175816101036329
1.1485152154157429738
1.1484562484716474007
1.1484577824343762398
1.1485271280344413469
1.1486724263222780618
1.1488865075410177319
1.1491593533056920773
1.1494668799586587049
1.149789334017245368
1.1500904864637895297
1.1609071785681599476
1.1610479494315115723
1.1610998376552026379
1.1610251722421356391
1.1608367760068130092
1.1605868096313596283
1.1603434499579774464
1.1601684215938470324
1.1600868779347173199
1.1600722516099359893
1.160065432960782017
1.1600156942866421961
1.1599049109883499131
1.1597530250621586045
1.15960871438848101
1.1595240028939175492
1.159527693224892797
1.1596082351102003916
1.159718522843032007
1.1597949720939733087
1.159786988303596722
1.1596763146081725537
1.1594806398413639581
1.159236452158653119
1.1589728615367973497
1.1587043179926159731
1.1584394426017332602
1.1581946026433225239
1.1580012370759051876
1.1578977773335592527
1.1579077012739058539
1.1580243996907704229
1.1496838138261038509
1.1495758059430190023
1.1494528159046304427
1.1493186905393173447
1.1491753850799886205
1.1490248437347656552
1.1488696734440138059
1.1487163131311295405
1.148574115580173638
1.1484591808838020555
1.1483861308296912096
1.1483724795205685343
1.1484265686252435046