/*--------------------------------*- C++ -*----------------------------------*\
  =========                 |
  \\      /  F ield         | OpenFOAM: The Open Source CFD Toolbox
   \\    /   O peration     | Website:  https://openfoam.org
    \\  /    A nd           | Version:  12
     \\/     M anipulation  |
\*---------------------------------------------------------------------------*/
FoamFile
{
    format      ascii;
    class       volScalarField;
    location    "0.0135";
    object      T;
}
// * * * * * * * * * * * * * * * * * * * * * * * * * * * * * * * * * * * * * //

dimensions      [0 0 0 1 0 0 0];

internalField   nonuniform List<scalar> 
106891
(
301.71572158730947422
301.71338397484430516
301.70510890793934777
301.6923156784732214
301.67630775023064871
301.65802409409479878
301.63767675977192084
301.61569476792334399
301.5919412319381081
301.56829968698144739
301.5437149691462082
299.58143214458669945
299.61274598664584801
299.65412065377779527
299.70075064911662821
299.74849610687761015
299.79475438980045965
299.83857685019353312
299.87914688187703405
299.91442557402069724
299.94060625196584624
299.95312447900823827
299.94974319348972358
299.93355422874725491
299.91396524304866489
299.90360023932311151
299.91247515178343974
299.9431342214714391
299.98875358518773737
300.03713972793167386
300.0771071851988836
300.10431462057704266
300.12207029071026909
300.13766752294230855
300.15771249860500802
300.1856174514600184
300.22201343658508677
300.26643639022927346
300.31788969145520696
300.37381062763199679
300.42974758286436554
300.47935126203071832
300.51670968898412184
300.53826068329959753
300.54424270893883886
300.53834765606598012
300.52591946775908127
300.51258080971120989
300.50368470717194214
301.53668898308103508
301.54615120787207161
301.56701862357147093
301.59534979892504225
301.62679425372692776
301.65684676837531697
301.68198531653501959
301.69949723464304725
301.70834821313269458
301.7083908756009123
301.70083785453482506
301.68714675339595033
301.66919578371511079
301.6484737277756949
301.62639213402553651
301.60409335902733119
301.5815252003991418
301.56084053855710181
301.54065203894242586
301.52524059446329829
299.62188971858063269
299.64929564017592156
299.6823514838971505
299.71979221757783307
299.76072178228162102
299.80409058916205822
299.84754203382794913
299.88696921451344224
299.91671390743715619
299.93131740804051333
299.92843554926082561
299.91200444269259151
299.89291460472912831
299.88508705732857607
299.89958229523193722
299.93860345616343466
299.99423072018356606
300.05241316700738707
300.09996300994885132
300.13071600941691486
300.147002464136051
300.15637061986132039
300.1668751115362852
300.18375847930883538
300.20972636271233114
300.24582671219485519
300.29166154167205605
300.34478042240016293
300.40020738543205425
300.45100147092608722
300.49054386960864349
300.51480049226518076
300.5240570074417974
300.5222184388826463
300.51450745223701233
300.50617755535444076
301.52548577321573475
301.53756443385981356
301.56162433062138462
301.59356438636103803
301.62865997030149856
301.66206655816779403
301.68975200851969021
301.70869857780792245
301.71748914514290618
301.71602217711830463
301.70526184111207613
301.687273241112905
301.66378628364032011
301.63743107684899769
301.60926008177011681
301.58199783886635714
301.55479378121140144
301.53150306181561291
301.50938773572687523
301.49468018562140514
299.61639068188344481
299.62571883473577827
299.64567114794670033
299.67828612830857082
299.72293556307101881
299.77593569707602228
299.83113861232840236
299.88072281479804815
299.91649480733047994
299.93276618484230767
299.92870561951730224
299.90992363630562068
299.88825035839005295
299.87805823054191023
299.89031063029500501
299.92664388113985297
299.97903992118682481
300.03343128388280547
300.07689870905977614
300.1034054860501783
300.11562319566007773
300.12250306006086475
300.13400582679997797
300.1571373016937514
300.19427773055474518
300.24409243502111622
300.30222022861823916
300.3627580020743153
300.41858791399732809
300.46286586968955135
300.49119969629140314
300.50302384312044524
300.50202850127311649
300.4949582019630725
300.48838072441282065
300.48664324726740915
301.50988221705097203
301.53641914007351943
301.57015724554270264
301.60620992490106573
301.63972301085431127
301.66658291469423148
301.68411848713873269
301.69099532476525383
301.68781819839381342
301.67547228158719008
301.65682276349031099
301.63302666983980771
301.60758372282532491
301.5802955422483933
301.55470300772731207
301.52872212080598047
301.50685776153130746
301.48555974799512569
301.47104365130314818
299.62916169235739972
299.64277936069368025
299.67576399239089824
299.72566064322546708
299.78530119846760726
299.84464204224320838
299.89345799342675036
299.92327236942310265
299.93036887347022912
299.91769264920617388
299.89455474412488911
299.87366411693579948
299.86785383788719628
299.88509481445430538
299.92502943065267118
299.9790878833714487
300.03386592971429536
300.07692999869811956
300.10207323360486953
300.1110794164559934
300.11286944610998262
300.11882187210869688
300.13833452832432158
300.17516837335546143
300.22791666343294992
300.291055460074233
300.35723423812100918
300.41853830733901987
300.46800636783666505
300.50099420342365875
300.51665273327211025
300.51783596169826751
300.51054073434625025
300.50101412147381552
301.45509432044417508
301.46333238480463024
301.48402375553501997
301.51405565663935704
301.5494568143137144
301.58576694739952018
301.61882955256766081
301.6453659397334377
301.66317074793715847
301.67162717007857964
301.67046154407233871
301.66138678906571613
301.64459684325038324
301.62304381596391067
301.59634954192745226
301.56815394050937584
301.53705784610264118
301.50810903011398523
301.47839318154143484
301.45504146846013782
299.63929168949329096
299.64661419142419163
299.67801736396722845
299.72976777178678276
299.79162119300787026
299.85023893967456843
299.89324728150512556
299.91293962842053133
299.90822731775381271
299.88627861419496412
299.86038951540615471
299.84474739948217348
299.84999322821630585
299.87989909679748735
299.93058750795819378
299.99154250753008455
300.04993023671102037
300.09407755139864094
300.11819085846718735
300.12388379759107693
300.12003614709254862
300.11920290224691144
300.13323732803530675
300.16824555543769293
300.22330846142659766
300.29177387470326721
300.36393341696918924
300.43006468701798894
300.48199966195977595
300.51463893026266305
300.52690000128467318
300.52216284807730062
300.50687654205665922
301.46014342018770549
301.47565645549400415
301.50090946247752299
301.53282360060148903
301.56753040856301595
301.60104622092268301
301.62959797574035292
301.65023478239731958
301.66114505893278874
301.66131413820011176
301.65135875225354312
301.63183738446326743
301.60506993336923642
301.57247575658055894
301.53703357236872762
301.50022214382067887
301.46584048872091444
301.43358189565998373
301.40958461057920204
299.66331196175934792
299.69735975089901103
299.75317169642517001
299.81724096060338525
299.8735286609086188
299.90872869731964556
299.9161986055976854
299.89809454351609475
299.86491303912947615
299.83252135833089369
299.81668349966588494
299.82704247740423398
299.8649139446498566
299.92368754102028561
299.99149336782130604
300.05525958908447137
300.10396371197913368
300.13221019386344324
300.14135770328982744
300.13937304736617762
300.13846112862410109
300.15064521888422178
300.18285248749145921
300.23425201718924882
300.29790419581360084
300.36365033377825284
300.42182415213159175
300.46505398090380368
300.48973819786311878
300.49608402367243798
300.48778118997012143
300.47084070463336047
301.48313459779001278
301.49642173139477563
301.51793029196363705
301.54504144238575236
301.57431289050640544
301.60206690595498458
301.62462579374164307
301.63898041369594694
301.64313199829820178
301.63622279257253922
301.61874380221047431
301.59203390563504854
301.55845966532075408
301.52064412883851219
301.48143782753027153
301.44392686741150555
301.41111225915074101
301.38399175182883027
301.36743470898511532
299.71851798125982214
299.76201142660596588
299.81519951701591253
299.86372529957401412
299.89458686763356354
299.90072339297898907
299.88396909470878882
299.85354148622343473
299.82303525911868292
299.80691755049133462
299.81484963883434602
299.84861891038713111
299.9029058411002211
299.96750355913712838
300.03007014592310497
300.08015271768539378
300.11124423996898258
300.12311780911375081
300.12171149286200489
300.11826854896224859
300.12489268414248045
300.1503693167782103
300.19624061674312543
300.25732211043026609
300.32425888824690219
300.38676872452253974
300.43653849537264477
300.4684491665732935
300.48041377859385648
300.47413842403517492
301.50029907420122299
301.52085600182135749
301.54594490745472513
301.57272830026295196
301.5979974529784613
301.61847476452436467
301.63130968130485599
301.63445778469696279
301.62681491140915568
301.60868895433640091
301.58087720755628425
301.54586853539393587
301.50587630527536476
301.46455593456136057
301.4245083076341416
301.39011414037241821
301.36163176850493528
301.34551718524869557
299.81271666270203013
299.85517443552220129
299.89020766393105077
299.90811027740198824
299.90404892125025071
299.88010297367253543
299.84542711492446188
299.81308588107441437
299.79663031111721239
299.80566277445029755
299.84253138486531043
299.90150432475076059
299.97136322524681873
300.03889995864091134
300.09326962400143657
300.12785077031668379
300.14273800877970189
300.1438811229716066
300.14176230380257948
300.1473402649860418
300.168747292473995
300.20766597555410726
300.26010548469525929
300.31763246553310864
300.37117461500355375
300.41280595766090755
300.43776638679258895
300.44312470806272586
301.52580294258973481
301.54761321494885351
301.57264686286595179
301.59811895871388288
301.62099122532777074
301.63822394830390294
301.64709887437044245
301.64588468903502871
301.63343157960122198
301.61040991561344526
301.57750997375075031
301.53772246235047305
301.492951730997504
301.44763368533216408
301.40386609198026235
301.3668221300448522
301.33616046103452391
301.3188212758191753
299.86657838485837146
299.89829918622587002
299.91845214187816282
299.92272303862938543
299.91027951637585147
299.88474142426946401
299.85506371669777081
299.83298262705022807
299.82860516440069887
299.84693647440275299
299.88647332585981076
299.9401514793747765
299.99807135180498108
300.0507084441028951
300.09124455053711245
300.11734672910864674
300.13134432141691832
300.13923045376719756
300.14865869905179352
300.16611013808676489
300.19473425815107248
300.23353812379173178
300.27803068615008897
300.32180040645090457
300.35822812448486729
300.38107657064892919
300.38671565340132474
301.56871459719980066
301.59546442346135109
301.62297178168483924
301.64783146626501775
301.66660691365524372
301.67629409081081349
301.67480281019004451
301.66099471673277321
301.6353917301997285
301.59917965187833033
301.55550548690371215
301.50682500540597175
301.45767550079159491
301.41021691025190421
301.36968927329570533
301.33538265641664111
301.31454806597201923
299.86177408565362157
299.89183301380728608
299.91683190689269622
299.92997953308366732
299.92698651147213695
299.90762842320879145
299.87675911351090008
299.84352904713108501
299.81866931534602827
299.81180997950184519
299.82766876927348676
299.86474853655477091
299.91673489197506797
299.97491487340363392
300.03016456644655818
300.07533160353443691
300.10668348295706664
300.12507796817936878
300.13530388699967943
300.14415223758146567
300.15737820064140351
300.17851644222139385
300.20717577812706622
300.23995811130964739
300.27117130550038837
300.29497969805350976
300.30602730461498595
301.65039241635275857
301.68268140040811431
301.7094900297375375
301.72654803463711914
301.73047502214291171
301.71963043933919835
301.69357152528959887
301.65441005467573632
301.604429694384919
301.54853324091050126
301.48954868144278407
301.43319432202173402
301.38076305959810952
301.33790864084886607
301.30319614732997024
301.28304605967053931
299.8259032055026978
299.84899016415505457
299.8724536999754946
299.88919979546813011
299.89392185396530977
299.88542706841377594
299.86714854652979056
299.84706189358786332
299.83313080939575457
299.83061174558588391
299.84246566085948871
299.8694818224937535
299.91010104418182891
299.95998183269301762
300.01227704002531027
300.05946717197690532
300.0955352418522466
300.11886672271918997
300.13246001807391394
300.14182958427835501
300.15239348305374278
300.16742181552518787
300.18707379141250158
300.20959469694190602
300.23121998556030121
300.24798739314866225
300.25597355594442206
300.25277800172307252
301.69203625462387208
301.71729896242095492
301.73427139691921184
301.73972864747048561
301.7323366746208535
301.71166258873614652
301.679727133995641
301.63834521337759043
301.59146134414845619
301.54112787820673702
301.49158820645664036
301.443792683944082
301.40128372068733142
301.36397379211149428
301.33480233923614833
299.81038432939828908
299.83786994868796683
299.85938248417659224
299.86827449636541587
299.86385948872657536
299.8518374851520889
299.8400274346344645
299.83462063233116623
299.83844018484626304
299.85226200468434854
299.8768384906979918
299.9125111260018457
299.9573903711320213
300.00591491508100717
300.0502974727839387
300.08382744643938622
300.1045185921896632
300.1154284856846175
300.12220742771643245
300.13027153540861036
300.14225739256971792
300.15807991394410692
300.17564196886331729
300.19222424577611719
300.20448802418525247
300.20974984640520233
300.20693831964837273
301.7357156999857466
301.75247082016807099
301.75854189186236454
301.75222808527996676
301.73320227936352467
301.70282566061803209
301.66321519409217444
301.61760854098292839
301.56879867390324534
301.52051305653066038
301.47432083229381306
301.43363897214544522
301.39837191197551647
301.37202628567825968
299.81933596036907375
299.83830328602329018
299.84523273394171383
299.84274651059615735
299.83907974999664248
299.84193566123178698
299.85463446176265734
299.87602668838485442
299.9027965627480512
299.93291861176072644
299.96576032186010252
300.00029920927056537
300.03322140626289638
300.05946928652679162
300.07545298247526944
300.0822105998794882
300.08492996735515135
300.08989265027418014
300.10161985088058145
300.12042105010442583
300.14307073465488429
300.16506899944050701
300.18220531777819815
300.19128479678175836
300.19110068169896977
300.18316823100332158
301.78435508640609441
301.78894855736416503
301.78162023482741461
301.7620101604654792
301.73159961314388511
301.69212081670207226
301.64695709802185775
301.59811760058238406
301.54999595305883986
301.50294592931527404
301.4618866373293713
301.42534809225259096
301.3985293067468092
299.80013031865217954
299.80496468067758542
299.80342989400622855
299.80394995055473828
299.81394869408097748
299.83565529240354408
299.86664588378056351
299.9027384065304318
299.94099433299527391
299.97944336276799504
300.01573445737966495
300.04617639194941603
300.06659507254317987
300.07517409722504453
300.07461016351243188
300.07127457548330085
300.07250394819720896
300.08252690950325814
300.10099692784399394
300.12387175029357422
300.14588039626283944
300.1621821478507286
300.16985165837513705
300.1685483179289804
300.16084162440245109
301.79873309875000587
301.79408205958225153
301.77835887168600948
301.75272220286433367
301.71829693367664049
301.67804160301687944
301.63323578982561912
301.58798402006772221
301.54198424041840099
301.50031572458260598
301.46136241906270925
301.43037457949230884
299.75946399189177782
299.76294948562855325
299.77150098694443159
299.79014753799253867
299.81964999892721835
299.85692747196264918
299.89751772636617488
299.93825725412995098
299.97728300238412658
300.01229079339782402
300.03992338859097799
300.05660108456277158
300.06116485886138889
300.05656897085691526
300.04961268061884994
300.04790940606687855
300.05569994853021853
300.07341861950129669
300.09703845713517012
300.12095230228243281
300.13962299745884366
300.14968254039729345
300.15142730142355276
300.14752273563857443
299.73546730645449543
299.74399985634045152
299.76436187739682282
299.79724794651525599
299.83960376725349306
299.8867377594433492
299.93410686403007048
299.97863161934054688
300.01751360003629543
300.04729745937493135
300.06445736568861093
300.06799611113535775
300.06081615234216997
300.04982847633522169
300.04288965441202208
300.04588376073246536
300.0591853068688124
300.07972216002281129
300.10143678019619529
300.11854651775638558
300.12796087049986227
300.12995258180666269
300.12760666783526631
299.74087306397501607
299.77810026190712733
299.82357339393666962
299.87231856051573686
299.92003333687671329
299.9644962120671039
300.00428284143799829
300.03710320428552905
300.05977014065769026
300.07027942790909947
300.0697031129517427
300.06320332152404262
300.05744868616147869
300.05792095706152622
300.06638609594125455
300.08061170763875225
300.09595760507806972
300.1080322948940875
300.11483903119716388
300.11684046461340358
300.11696556331435204
299.90663537328322263
299.94748228534859891
299.98424105773722204
300.01672632050002676
300.04270885049817252
300.059360022794408
300.06595738952938746
300.06545112078998727
300.06309827914600419
300.06390131520976183
300.07018475848178696
300.08054695145460755
300.09093036609681349
300.09829755571121268
300.1019831022923654
300.10341945420549337
300.10590386332108892
300.0260124874210419
300.05186697516148797
300.06806115124715006
300.07557378804267501
300.07837509828146949
300.08107702287463781
300.08597908497335993
300.09187660456183266
300.09591977676092256
300.09639487873391772
300.09357822706755314
300.09077551791148153
300.09149546480887238
300.04162913080676844
300.0649645525124356
300.0793976383467907
300.08761049554601641
300.09328182397280216
300.09831205760707462
300.10172526203740517
300.10162545727661154
300.09696006993516448
300.0895541144445815
300.08340233775146544
300.08247229554211799
299.12119759260565388
299.08322087333760919
299.0499432056580531
299.00816591955731383
298.95176021237114128
298.88728116145637159
298.830477076729494
298.79776919618592501
298.79811730155324767
298.83059241740454581
298.88771894204120372
298.96048801508851511
299.04170750661791089
299.1264898031621442
299.21132616622458045
299.29226837243339787
299.36360220405543942
299.41661861854868221
299.4414618038589424
299.43092529983277927
299.19046365041032232
299.13114031412010263
299.0916275366483319
299.06161280926011159
299.02470908632551527
298.97058261803482537
298.90226520032587132
298.83511799733378211
298.7878074989258721
298.77246025837428078
298.7905857979340567
298.83612336948283428
298.90079839774142556
298.97830902233118877
299.0645067549684768
299.15562715893253198
299.24626098591028267
299.32891203660057045
299.39402687040711726
299.4323800744066375
299.43786339243217753
299.40939995289079434
299.37001745890597704
299.29283937783725378
299.21174795224635545
299.14517596167843294
299.10053227939772569
299.06992858855676332
299.03634500298574039
298.98718736866504742
298.92282740251818041
298.85733451007291706
298.80932560462116498
298.79131572604325129
298.80491198217794135
298.84402466294585565
298.90118290855019723
298.97186603511568137
299.05400559606533761
299.14483482230235722
299.2384474068912823
299.32577531798739301
299.39669412664864012
299.44264486652753021
299.45890843542252924
299.44485070452947184
299.40340503733608557
299.34053224321974085
299.479113254053118
299.43156873591766498
299.36115863158647699
299.28539321452871036
299.22152843698296465
299.17769399686835641
299.14815201611929751
299.11840561840051578
299.07834143033483087
299.03050140648491606
298.98947807782610653
298.9718430525941244
298.98536520246938153
299.02538381489330277
299.08019530996051571
299.14024219319213671
299.20249273812407864
299.26855454329319173
299.33900579755169247
299.40949133725581532
299.47077954428203839
299.51281422358982809
299.52887885383904631
299.51785654967176242
299.48350643084114608
299.43202519337086187
299.37102423342480506
299.3088098132384971
299.60445327870769461
299.59462477491200616
299.56681060645331627
299.52022679147842155
299.46616379386659901
299.42130034909195047
299.39785328104005657
299.39603420861544691
299.40535605629128213
299.41528457530665719
299.42410794742244207
299.43914920718231087
299.46885157159778146
299.51384421598191921
299.56436300626967295
299.60671801798736169
299.63331134199364669
299.64621301995578051
299.65337577741070163
299.661559215050886
299.67142153241121605
299.67824911999616688
299.67694074723101494
299.66653345343081583
299.65101866072961911
299.63646562789386962
299.62686588120374154
299.62348334253380244
299.62661541928611086
299.63831492669731915
299.88747297197170383
299.92914269160525009
299.95652731816534242
299.9571562518195833
299.93100288818095578
299.89190508951719494
299.85884382505423673
299.84430528944704974
299.84685928312626402
299.85363846889060824
299.85270159899454256
299.84366669477498135
299.83722833582157818
299.84532738303272481
299.87083359739528987
299.90428410798682535
299.93186851189727804
299.94724098783240152
299.95585949134641623
299.96907531157182802
299.99511474577769832
300.03234666949646225
300.07077422898100849
300.09946909799106152
300.11349708968981531
300.11576568437391188
300.11341965104060137
300.11209614776652188
300.11376486730068791
300.11870335902381157
300.12892801204378657
300.14883746353740435
300.16155036308168746
300.19733624892489843
300.22160348203129843
300.2226656114950174
300.20030253715418667
300.16766898961412835
300.14310690253944358
300.13816594772771396
300.15034054341384717
300.16516259432677316
300.16888967313400371
300.16028091854610693
300.15068556413280021
300.15348886816298091
300.17314569444812378
300.20114782248526808
300.22403855229305236
300.2356878156044786
300.24221407031615172
300.25556507682028951
300.28390415565496596
300.32488848081294464
300.36739029254152911
300.39994398643000295
300.41784094826959972
300.42444846727966024
300.4267341312124131
300.42896427437887041
300.43072691424686127
300.43077943507978489
300.43171947103297725
300.44040064659401423
300.46326906745525775
299.448808782583626
299.46188221430514886
299.46813639453216638
299.46189421347821735
299.4419207960456788
299.42030166038767902
300.28363447413011045
300.31578285750134683
300.33597743927458623
300.33209203449541747
300.30398022709312045
300.26511216107843438
300.23467560452593261
300.2247922665645774
300.23277175800933492
300.24319856858721778
300.24135260037297712
300.22575001500337066
300.20840390273417597
300.2036580095438012
300.21616860950553018
300.23730758734194524
300.25308498849068428
300.25745478675793265
300.25716912238084433
300.26510469045967966
300.2892957505048912
300.3266851638402386
300.36489411133544536
300.39171924536350389
300.40257817259453077
300.40159629457826895
300.39637025046033614
300.39122122153935379
300.38521868856327046
300.37678507450948473
300.36906541047108021
300.37018437794375814
300.38719166756993673
300.4195332769904212
299.64413898667231706
299.66998962758441394
299.68387027712725512
299.68960594551111853
299.68239516836501934
299.66168396712248523
299.64055143673670045
300.20430419259270138
300.22918272747318724
300.24190501645853146
300.2298061729658798
300.19275936268599025
300.14449786404213683
300.10486647996066267
300.08634089710102444
300.08621119844752911
300.08855832240635664
300.07808990593451881
300.05327289360775467
300.02671576966275779
300.01332240376586924
300.01789531173199066
300.031680040958463
300.03994761354255161
300.0363948542833441
300.02785801698217938
300.02790152017331593
300.0448695910636161
300.0755871559371144
300.10714971239394799
300.12681127000900005
300.12999404570888373
300.12131317121702523
300.10882002537164226
300.09691010342976369
300.08429343614272966
300.06891088996127337
300.05387841658193793
300.04788883249273113
300.05839805143540389
300.08505552185323495
300.11640303071709468
301.68109876888581766
301.67762465109791492
301.664365970997153
301.64224018082762768
301.61386387319879532
301.58110627231496892
301.54713994986656189
301.5134596749402931
301.48310996779343895
301.4566512489978436
301.4352522750227763
299.58684854025784716
299.61631192097291887
299.65061777223655781
299.69199638564856514
299.73885675593061251
299.78597990535104145
299.82725548074216704
299.85848159821949821
299.87878337093872005
299.89008992498082762
299.89534478494994119
299.89764868945815124
299.90076933768119716
299.9091667367407581
299.92659567700826528
299.95390019473990151
299.98649142966166892
300.01552749166739886
300.03224769197692012
300.03338121270951433
300.02410924667907466
300.01643992826279828
300.02454765536845116
300.05865145077541456
300.12108218080078359
300.2051467523796191
300.29805373816520842
300.38513303007130162
300.45400314774826711
300.49713702782548808
300.51313058945970624
300.50611089424296551
300.48414583071604511
300.45680940648225032
300.4330520891019205
300.41895814213876292
301.49572143124623835
301.47644496366274325
301.47085211245831715
301.47769565093051369
301.49480701222461221
301.51937703652248501
301.54800773785632373
301.57722119657216808
301.60362355459693617
301.62438220860093452
301.63747943394366757
301.64168881010772338
301.63709956962139813
301.62421250055928112
301.60469935187245483
301.58016309669261545
301.55326731284873176
301.52521776610814186
301.49945909875378902
301.47512188041304171
301.45589046176667125
299.5636651594178943
299.59442208256831464
299.64005635634754299
299.69850594200431715
299.76290547650478402
299.82300888630663849
299.87009095005583958
299.89996215223391118
299.91329939678547589
299.91432734755642286
299.90847245293264223
299.90036296419236805
299.89463678650628253
299.89604192853317954
299.90938144007799337
299.93651310102109164
299.97380913373973499
300.01256162217384826
300.0425094112528086
300.05663406589138731
300.05576436767671566
300.04826357765625744
300.04721376048178172
300.06437141867712626
300.1060978572387512
300.17061098208836256
300.24925552236277326
300.32925995929480223
300.39763011850038765
300.44467133861274988
300.46643237536125071
300.46512403070187247
300.44815561007675342
300.42492122889223083
300.40449741502141023
300.39329952149887504
301.49670413346956366
301.47599755063259863
301.46829298669644004
301.4727543394566851
301.48762763821861199
301.51047152638977877
301.53807416382755946
301.56712240644253598
301.59399327391656698
301.61565854778905305
301.6295602003061731
301.63413800965690825
301.62905205601913394
301.61475994874660955
301.59312082350515993
301.56572592782271158
301.5359864719308689
301.50476481954194696
301.47718192371951318
301.45041793984393053
301.43204591139937065
299.58591263225298462
299.64546291625987351
299.71691809259908723
299.78883552009790492
299.84908778033695853
299.88980004118917577
299.9090816495502736
299.9111086987331305
299.90327375079965577
299.89246902765790992
299.88322125107225702
299.878778997378447
299.88222456199554244
299.89679915844533298
299.92413257040652752
299.96239754811438161
300.0047264583508877
300.04139237487913761
300.06393963550306125
300.06996991253345186
300.06445940177775356
300.05839901306194406
300.06455723140732061
300.09271254503346427
300.14574198787397563
300.21836640093687265
300.2987944571577259
300.37237131090819275
300.42700430070345874
300.45651468438154552
300.46176062719780475
300.44938340426523382
300.42852053514786803
300.40791991402483063
301.48126474450651813
301.47008397747129038
301.47235405252473583
301.48633297488231619
301.50937955452832284
301.53787410882188169
301.56788287040541263
301.5952570195277076
301.61642043901565557
301.62876544128499745
301.63058961824378912
301.62210087130154079
301.60380308806043104
301.57849477610278655
301.54767148256149767
301.51544082953211046
301.48242138875258433
301.45382339572489627
301.42650570501876928
301.40810080507242219
299.61497837466998817
299.67950100473871089
299.75437026946127617
299.8264401247614046
299.88363451683471794
299.91801736951509838
299.92863845060122685
299.92130011009760437
299.9047901791226991
299.88713875643844631
299.87375340587612982
299.86782562267387675
299.87216628354951808
299.88877184883455129
299.91813385232580913
299.95812754007948797
300.00272412989983195
300.04314901518057468
300.07109277517156443
300.08268019821082362
300.08081838394349461
300.0743962697484335
300.07582678391418085
300.09631362283403178
300.14129152893991659
300.20746469229817421
300.28381606305822515
300.35538923914390352
300.40907212553730687
300.43779838905447832
300.44200614287825601
300.42808659734191679
300.40542387061788077
300.38314891137497398
301.48995364340885317
301.47600957376738506
301.47623599723283405
301.48901001880523154
301.51134943662771093
301.53918298368341766
301.56786476463162217
301.5929551564578901
301.61055502777804804
301.61849728445452001
301.61536435629227526
301.60222609686661599
301.58001053958190596
301.55214313778054702
301.52047266131222614
301.48850663530123484
301.45767439401265619
301.43066304851049608
301.40676489575690766
301.38891151254193801
299.73206418914969618
299.8056575936328727
299.87057739904628306
299.91617175530853956
299.93759855141428261
299.9360263600503913
299.91745922904135568
299.89117557788318891
299.8664889740966828
299.84998062155858634
299.84528186282238948
299.85454992987706646
299.87849915639907294
299.91573388597839767
299.96245600281702082
300.01241132549608892
300.05778842112772509
300.09096877072170173
300.10728941247413104
300.1072600383707254
300.09768785051613804
300.0901761208437506
300.09743727210292263
300.12807259913029156
300.18206714950520109
300.25048979740648747
300.31903387210104484
300.37350678776385848
300.40488071568404393
300.41166182899132764
300.39890051431700613
300.37570076159232713
301.47120683732072166
301.4670013245651603
301.47479539002671345
301.49213017501557488
301.51549439746997905
301.54077478012163738
301.5640879366825402
301.58193649380530132
301.59238410044298462
301.59421229337095838
301.58822849688777978
301.57496947893980632
301.55687888692722254
301.53516849865570748