# time            
# Time            	cpu               	clock             
1                 	2.8018310000e+00	2
