# Forces                    
# CofR                      : (0.00000000000000000000e+00 0.00000000000000000000e+00 0.00000000000000000000e+00)
# Time                      forces(pressure viscous)	moments(pressure viscous)
0.0125                      	((1.55208951236712666686e-15 1.53132890931817346427e+04 -2.43010614408477219919e-14) (4.62623773247960334842e-01 -5.17934575581139450273e-03 -1.22218554026142780730e-06)) ((6.08249964682983090825e-02 6.44662964325521683566e-15 5.88731515283143380657e+00) (-5.52572489004930130223e-06 -3.38187810238491310191e-05 -4.44123949611945484373e-02))
