/*--------------------------------*- C++ -*----------------------------------*\
  =========                 |
  \\      /  F ield         | OpenFOAM: The Open Source CFD Toolbox
   \\    /   O peration     | Website:  https://openfoam.org
    \\  /    A nd           | Version:  12
     \\/     M anipulation  |
\*---------------------------------------------------------------------------*/
FoamFile
{
    format      ascii;
    class       volScalarField;
    location    "0.0073";
    object      k;
}
// * * * * * * * * * * * * * * * * * * * * * * * * * * * * * * * * * * * * * //

dimensions      [0 2 -2 0 0 0 0];

internalField   nonuniform List<scalar> 
75962
(
3.4701977698795342074e-05
4.6657113885486453913e-05
6.0453832931217411928e-05
8.8801827570531694216e-05
0.00011692619632359495241
0.00013241040027520074905
0.00014295701365969295843
0.000163552420105765844
0.00020430364358979723129
0.00024983221117853122127
0.00028363728313856033554
0.00030195551451105151226
0.00032246700323840157268
0.00037194772851888656916
0.00043671216679908356727
0.00048495727814814042385
0.00052554461387544566982
0.00056915305858623263004
0.00061326441076936923178
0.0006532618717992745138
0.00069467854464450062065
0.00074626956891311218342
0.00080646321836825012475
0.00086312919407169276693
0.00090843426680869390939
0.0009496684865834399648
0.0010032078305980112604
0.0010785365011721638299
0.0011711668319158445497
0.0012694046130243333542
0.0013591355321004407793
0.0014276301772560273922
0.0014694274143476852151
0.001492255309344859681
0.0015159089924347425148
0.0015641799572543777213
0.0016746650785294326172
0.0018204811748112989956
0.0019662641937779135395
0.0020887891705730441544
0.0021719886079078305416
0.0022140053603050555489
0.0022334704124747045521
0.0022605895250684565102
0.0023307731972739809644
0.002537363057608424486
0.0027942376986116006232
0.0029808448279724326577
0.0030963661576850513499
0.0031743658179075101219
0.0032506958521436768624
0.0033360195406823699334
0.0034166875832022042606
0.0034789597159955751131
0.0035255628564511178047
0.0035668294127534157407
0.003608401184790259713
0.0036489919554439954885
0.0036833567432444837969
0.0037077291811992230466
0.003727172159684787045
0.0037582946175504800684
0.0038293537011335459369
0.0040380885735795922498
0.0044202340450520327328
0.0047608959005096523204
0.0050010138156854726244
0.0051313181881494258907
0.0051823778363540313335
0.0051988638793185231249
0.0052150641309821376204
0.0052503761424234742308
0.0053296143377447313672
0.0054424188620808338843
0.0055798913080816877827
0.0057303293908224093092
0.0058730505327637873986
0.0059831634009059816992
0.0060465414362635347412
0.0060747233434675631733
0.0061006721442952291032
0.0061583786910041904417
0.0063356325736863561282
0.0067287959777106304271
0.0070817233839599010373
0.0073319710098731869646
0.0074786332587960394416
0.0075484392584934303233
0.007574645691520763037
0.0075846067512421611739
0.0075964518526060167622
0.0076227536716118853705
0.007690650012192963049
0.0078840557025071540675
0.0081952880875589984716
0.008491988972047398096
0.0087213430348900226191
0.00884718700949092135
0.0088820837848653869107
0.0088789892372652737262
0.0088698662649158727805
0.0088830004707135690883
0.008990502804066519138
0.0093331813712825752866
0.0096448069847269446431
0.0098419730945444698633
0.0099724178987681735137
0.010070782537777793128
0.010150060949134081037
0.010211020994601204687
0.010260944012488637869
0.010330785665208615937
0.010478352973400219608
0.010820673267568895262
0.011229690798256246331
0.011563303951229940772
0.011752690531130557602
0.011810611403109490605
0.011808836726186499461
0.011778274786657999193
0.01176808606094650704
0.011799533860762944498
0.011986561901817866654
0.012531030333494966311
0.013085634341096562955
0.013518739080054291424
0.013825680614571822166
0.014006132549961639727
0.014083094131730762577
0.014100977434406011812
0.014106517088537893004
0.01412636574917034045
0.014214076792401544522
0.014437635862912042914
0.014597616630570409146
0.014662715064382918911
0.014671014031312400172
0.01465224930298359915
0.014544826627802990432
0.014315856770411883661
0.014165610081201330736
0.014108789138959571333
0.01410983377089466452
0.014191018313481929339
0.014607477021149374574
0.015341187222553820044
0.015825509093462586385
0.016131876813766748285
0.016410568193593856601
0.016783690368610739568
0.017313062510702376812
0.017960975559948619273
0.018615011501915385006
0.019138624339836339538
0.019442994639207712704
0.019539940545404647226
0.019529770961205488583
0.019390017211200934188
0.0190135053081898521
0.018818373249856471668
0.018803040958181561904
0.018920155378719362427
0.019532687844894362772
0.020499604524331770106
0.021050219996667788452
0.021258757457694232862
0.021294889630384832013
0.02128946265124488646
0.02128683710503999002
0.021295380660523863942
0.021297717668082791209
0.021264695572483487823
0.021070448850949181213
0.020476384773691971852
0.019928367112982729725
0.0196204737933198467
0.019501027485040216963
0.019481708366145922967
0.019497997291223190947
0.019595116270645421969
0.019763206488707465297
0.019872458668557219097
0.019930106407173412558
0.019953928831718877046
0.019958815576339515585
0.019956337415549942754
0.019937448197625232127
0.019863972210001794305
0.021639137482715682659
0.021700456043651072252
0.021809106049251104908
0.021938940630661027398
0.022082874565942343936
0.022232281154490177166
0.022376973635279108488
0.02250854888176075097
0.022620301325955414345
0.022711081070784004676
0.022783118496239040951
0.022841296868049733304
0.022891328307124751695
0.022939498604837720713
0.022989806543936716632
0.023045398030881087542
0.023107669563053056389
0.023175423497078479623
0.023247418504053325716
0.023320452563822518383
0.023392301078291946603
0.023460176269790466996
0.023521362898326368673
0.023574818313145860793
0.023621994169123295554
0.023664330401571974372
0.023705126630051916864
0.02374707247030925783
0.023794317478152363782
0.023849974790836701161
0.023915981698683651951
0.023993162582630806617
0.024080469093073864767
0.02417779331285781208
0.024281879141603006367
0.024391511541825477982
0.024503897927825254305
0.024615939984516208017
0.024721971039659264291
0.024819166991231912667
0.024902240567142481381
0.024967455613932855452
0.025013633719000352706
0.025042163044793078197
0.025056339836370365715
0.025063364397226891439
0.025065394449791653098
0.025065022941192827838
0.025061151940332083293
0.025051792824003032284
0.025044921501450594092
0.025038588189844709908
0.025029482166655053071
0.025016206867701125394
0.024998115508434462506
0.024975950192307954517
0.024949905140085975458
0.024921228648662641092
0.02488994784300369717
0.024857569983497827815
0.024824013507181389576
0.024790751404987369788
0.024757910756975493732
0.024726213497182906315
0.024695970965115297824
0.024666834979812597706
0.024639261978929797442
0.024612396119971183955
0.024586737717036462325
0.024561708535937205877
0.024537964318373958056
0.024515152565153842251
0.024493712798191544927
0.024472365733179936298
0.024451766245751842266
0.024430062421485775753
0.024408930733122828627
0.024386666523004255774
0.024365224847092893656
0.024342938536180035863
0.024321148507082238077
0.024297773718578993124
0.024274275729531068907
0.024248618291228211247
0.024223818226106811485
0.024197860269230930808
0.024174184504599408735
0.024149772943596083119
0.024127378292376978203
0.024103431381308673687
0.024080932921452177786
0.024056373752632913277
0.024033185953458924972
0.024007894142036551033
0.023983792780967853192
0.02395795361373822055
0.023933509530901449919
0.023907606697112643301
0.023883462906248997121
0.023857315055143973187
0.023832983420876575203
0.023806354396677182478
0.023781587025157081144
0.023754762725391200678
0.023729921039142815031
0.023702583872062428505
0.023677235448986973937
0.023648772117560057371
0.023622460635379781413
0.023593337271780836367
0.023566412694412064432
0.023537043729911999446
0.023509859074792464895
0.02348021417952390541
0.023452902872526121963
0.023423374446506044222
0.023396354103701024613
0.023367565868746782709
0.02334153078584153343
0.023313442211788749925
0.023288212239904126921
0.023260179518963083195
0.023234532811137919434
0.023205662338387823135
0.023179183102684196988
0.023149950282970777754
0.023124038013049488111
0.023095677683440177935
0.023070563407743608503
0.023042738139442221768
0.023017860237573520982
0.022990324016358837378
0.022965938958602202802
0.022938876387865361761
0.022914480283587921466
0.022887090886246155147
0.022861836200498902166
0.022833453506051738791
0.022807328703749140536
0.022778286877909035418
0.022752022850611907517
0.022723215637729006489
0.022697419215920843633
0.022669220666870305847
0.022643704402935137254
0.022615457905788803605
0.022589962898395665042
0.022561345116151237944
0.02253573783605497885
0.022506954098065135028
0.022481264323612266259
0.022452253323450421102
0.022426661231803653174
0.022397547578145830111
0.022371955401821783105
0.022343101416683216337
0.022317755016033315185
0.022289611870338080224
0.022264759328180023373
0.022237090645663312033
0.022212257558245376149
0.022184517003445654304
0.022159560329041792098
0.022131195168057293116
0.022105607954766525597
0.022076334888033670445
0.022050059322480660556
0.022020684810420267791
0.021994575366795603155
0.021966051344483646796
0.021940663694616422547
0.021913172147638087378
0.021889026550538315252
0.021862588409613213647
0.021839578686125113438
0.021813919783707707428
0.021791601435269730702
0.021765716822368261218
0.021742756546399139711
0.021715428903874334915
0.021690507839483098851
0.021661645023856607867
0.021635507716274801626
0.0216064940971195385
0.021580921757968978686
0.021552771261670818775
0.021528312382257740187
0.021501050517073329316
0.021477352826998259705
0.0214507332818928316
0.02142723502521477405
0.021400862710082263485
0.021377665607450475893
0.021351368412441090738
0.021328695958008476313
0.021302652615830381527
0.021280123984424841738
0.021254522839803589168
0.021232135313582218422
0.021207225099431094989
0.021185349416314138565
0.021160775850173632606
0.021139526394125161823
0.021114969291293785025
0.021094088742395517011
0.021069992603862525149
0.021049512641166071014
0.02102591190146019598
0.021005747951959446995
0.020981951344421063271
0.020961358483573253736
0.020936906482699611104
0.020915759463409306501
0.020890882084783866934
0.020869918090238154945
0.020845358095640028478
0.020824976423418635474
0.020801343557786521749
0.020781350842447397081
0.020758176774462466091
0.020738701182851503046
0.020715357839202915707
0.020696087582652698822
0.020672944979271044852
0.02065393759934730164
0.020631137663478599231
0.020612356057181233787
0.020589899416646489927
0.020571146852827348894
0.020548274163631859851
0.020529773874371919778
0.020506796560606728452
0.020488501256688468333
0.020466106492486944857
0.020448156990690330437
0.020426328280826109435
0.020408812577389877363
0.020386940544809328824
0.02036960753310258776
0.020347620439270432818
0.020330179856765568519
0.020308120339870536913
0.020291060454698865018
0.020269210718279698918
0.020252662319345974412
0.020231566558369391828
0.020215932947636326006
0.020195783413527200467
0.020181037310643155924
0.020161949710531423818
0.020148107747581498611
0.020129431210539002611
0.020116239252194932641
0.020098339541511130862
3.7856633160497411849e-05
5.0860733339900223078e-05
6.1179346848934141202e-05
8.3639303640266403177e-05
0.00012448755667834768106
0.00015036625769624504287
0.00016719491000723320879
0.00019517800159382701995
0.00023314112227344874055
0.00026588938609518035115
0.00028842169473063935864
0.00031145040475484406977
0.00034933430427886905502
0.00040802363476034550233
0.00047567632893574476232
0.00052608844772202489545
0.00055068006690493038688
0.00057593729650896755088
0.00063355042347477692321
0.00069781121905587923434
0.0007443401849659561989
0.0007894219078216201807
0.00085128781205338400519
0.00092182311815539822591
0.00097809085479119576081
0.0010124507796814938721
0.001044945023547994966
0.0011026704622914137392
0.001194275015186784623
0.0013037151342178100386
0.0014016524654656312924
0.0014659920413544319778
0.0014985536563880102589
0.0015230300311523602922
0.0015692208061362144991
0.0016680066132498362012
0.0017993726354821502292
0.0019368559512581741411
0.002059396431705580368
0.0021520915904568896186
0.0022097215102729757773
0.0022387085426289910634
0.0022602470837462707194
0.0023018130154686482734
0.0024153719345367608354
0.0027229685337278142047
0.0030532798911186839405
0.0032781478124196288849
0.0033866358872598782345
0.003418196632100251129
0.0034302121096587453834
0.0034576913702530623004
0.0035307295520850857928
0.0036133636547335261542
0.0036803796868147310717
0.0037316730528874678639
0.0037697460824682072107
0.0037965701080898903164
0.0038142577357495122473
0.0038268538577362429948
0.0038430742704800621018
0.0038756354413922262589
0.0039583381317390767262
0.0042100526244004303836
0.0046251202284484319721
0.0049812168975880847036
0.0052284418453605197713
0.0053634207587229905043
0.0054180541314753213541
0.0054365047339912419069
0.0054543648425588488193
0.005493533840820757734
0.0055869124547530549588
0.0057148039710490398588
0.0058568103007439042268
0.0060011082178737344683
0.0061314584659043873394
0.0062300091728605651656
0.0062868661168658003524
0.0063115713763591133403
0.0063310287555812250204
0.006372939401776530656
0.0065029543189134364836
0.0069043538259600202231
0.0073933007449846974146
0.0077525015106215738533
0.0079733503253204603828
0.0080844993635564351558
0.008130042386045734093
0.0081471373109212579661
0.0081583871072954065179
0.0081773647219427619826
0.0082182766090118323371
0.0083218663719265371231
0.0085585032912651043402
0.0088116962534868070039
0.0090161230726561493454
0.0091371144111044109298
0.0091780471843215041816
0.00917931587644377385
0.0091739195390592703089
0.0091812031702197659938
0.0092516126506920828843
0.0095371301853633318885
0.0099283800465645635075
0.010215087374965556299
0.010423352530343368491
0.010577819591539633706
0.010691633537996660108
0.01076920120712690325
0.010819455362494276307
0.010870345414263541881
0.010968983400412427032
0.011229628873307752682
0.011708779323102306083
0.012127183412516621269
0.012392240730793192133
0.012497598235572482048
0.012511077652799185156
0.012493240431978457419
0.012471268908817525339
0.012479287700420140655
0.012566672425645653358
0.012930403651889885858
0.013489490579902226747
0.01392375731191735494
0.014221410598059690614
0.014388791708774037459
0.014457378000866829074
0.014478515117788866295
0.01450067035540107338
0.014558994861317797048
0.014747786887819103532
0.015030384008886218949
0.015228952917057522395
0.015329509484684462547
0.015357587996394238619
0.015354710336135590429
0.015313984058983948905
0.015155783943135841055
0.014988381340534019659
0.014909660787717571653
0.014896661524321105907
0.014930937826594584475
0.015146333708159277417
0.015802870141830516193
0.016443411420152511532
0.016912215451314695225
0.017299446627255667119
0.017713631939215945116
0.018246553010128042926
0.018899248881513668052
0.019577714889010115057
0.020142109629770782453
0.020486865684048512215
0.020606418459919593339
0.020601301177534191156
0.020468362672922051776
0.020053290227077906482
0.019795996187137461508
0.019753787155636349376
0.019827974621109356601
0.020270658477353882543
0.021151691510346057323
0.021718625300538609707
0.022028180995973461326
0.022228492813221343433
0.022414925030419519808
0.022593596931227900859
0.022715001785957134733
0.022756199858996295493
0.022742647812782127575
0.022604796037275311227
0.022054925267411529949
0.021390511428108348324
0.021009541076148021549
0.020855174944107868901
0.020825809355060263123
0.020838402164333316713
0.020920334127569158861
0.021060048386722308306
0.021142305992945611276
0.021180570171728196893
0.021190640639057969907
0.021190300317958869758
0.021180055556841423381
0.021133225735070638313
0.020983058154523382549
0.020803144322559807833
0.022796581976981124262
0.022801953308464805587
0.022814651542991018496
0.022849850766680782771
0.022958182878801539073
0.023164323317375848377
0.023369101908240704629
0.023556293819807498646
0.023717492446819060659
0.023845963242140496424
0.023940739508539803093
0.024005865721588331985
0.024049688613610599452
0.024081681040914328096
0.024111304428105592712
0.02414707464687832969
0.024192678146498874242
0.024251241721656678629
0.024321103810769875014
0.024400325971570654277
0.024483702649121610179
0.024567599597259709432
0.0246476865157775199
0.024721423312266222611
0.024786152014929688225
0.024843529016063604919
0.024894995209760115151
0.024943716377542148044
0.024993539869717744384
0.02504797597038237178
0.025110724887250402554
0.025183902079801912671
0.02526827933075842525
0.025363071480621061232
0.025467243488759054582
0.025578599454905214666
0.025694969761741858622
0.025812457457991710985
0.025928754037906096702
0.026038458784009448077
0.026138262348587678469
0.026224740658903726576
0.026294326608984498056
0.026345278048106664237
0.026379129066993575042
0.026398207076560306628
0.026408145821908951545
0.0264134321608630665
0.026414832208574077349
0.026413613594655490496
0.026407427240013676278
0.026402363770884073463
0.026398013438794346031
0.026391340732992804585
0.026377849056068922162
0.026356924394675036033
0.026330914741447868782
0.026301334045444720033
0.026268725930886856895
0.026234195746882082306
0.026198216439880937095
0.026161855331063691571
0.026125319951576457533
0.026089799824214679469
0.026054652150910857789
0.026021314704663085077
0.025988541195117002836
0.025958022566452017971
0.02592810838536688256
0.025900358153140023293
0.025873026287594726169
0.025847659475425110998
0.025822541766630201232
0.025799185254790732436
0.025775182553009021169
0.025752423494009784449
0.025728008958532826156
0.025704676054272998509
0.025679606593556610766
0.025655845468945108478
0.025630662012325368393
0.025606529575288285161
0.025580298817665460959
0.02555456234320919659
0.025526397128165075057
0.025499977262724012744
0.025472357690898735083
0.025448075746362781163
0.025422765409439971457
0.025400187571521213453
0.025375315260677142049
0.025352064873577270093
0.025325756017023210581
0.02530085491809451817
0.025273079572638378065
0.025247139258795566613
0.025219198928667248966
0.0251936590091772529
0.025166251674302562297
0.025141195985112628486
0.025113636495067436644
0.025088437359962974249
0.025060622149747784765
0.025035263246195475773
0.025007144829520294715
0.024981390913775554374
0.024952372104374596212
0.024925837605382614864
0.024895643462396688933
0.024867985054037426013
0.024836659667804409507
0.024807769819005249384
0.024775573172292796736
0.024746170999685401792
0.024713793602650069997
0.024684599358023910642
0.024652714194317488366
0.024624192802603587366
0.024593291335947134457
0.024565934768976799979
0.024535858151358697077
0.024509283611293324751
0.02447935890153170313
0.024452527930123375832
0.024422010502409698118
0.024394595222695953513
0.024363716470012990872
0.024336711211726910764
0.024306406130866046317
0.024279879506917147886
0.024249951350141230738
0.024223549405219799158
0.024193967043731914174
0.024168297435581923005
0.024139362644674828423
0.024113957869279292745
0.024084806014603259844
0.024058580840198830197
0.024028388129068975476
0.024001289307382683846
0.023970470096083041495
0.023943257962112791254
0.023912632432986878628
0.023885867486218653744
0.023855794307746910898
0.023829352718105142883
0.023799420084298729405
0.023773080583276415267
0.023742883340598406466
0.023716460566318871978
0.023685943879217803698
0.023659165264366940895
0.02362802391325525414
0.023600735666460894574
0.023569019690968435327
0.023541483633028340017
0.023510109127979999383
0.023483332086070240335
0.023453154509161758257
0.023427426114231826582
0.023397994590431018397
0.023372351393537837277
0.023342748979102469209
0.023316834998959885122
0.023286499625226809995
0.02325987448693746934
0.023228649265268755397
0.023201390727757058297
0.023170217549045635241
0.023143463377901872524
0.023113331520018973175
0.023087574960538551072
0.023058416279428978202
0.023033546523091117525
0.023005087080622068502
0.022981029682663418889
0.022953247551528176834
0.022929872583029180938
0.022902110748837037346
0.022878255524986703534
0.022849154859418734087
0.022823509003595497668
0.022792965340948326963
0.022766261132112611959
0.022735569635990091064
0.02270935409849907799
0.022679370338608999258
0.022653994730002152691
0.02262462386120331001
0.022599934746978519312
0.022571132186575519618
0.022546800060791166026
0.022518412118800637534
0.022494483701515029239
0.02246640626934391996
0.022443054786723034416
0.022415337562057165155
0.022392280577187718277
0.022365080631521715854
0.022342415246219490127
0.022315956358219365269
0.022293781616120205563
0.022267537087325820627
0.022245728251809319259
0.022219387870283800052
0.022197871432548085119
0.022171924132880146963
0.022150865504787432825
0.022125333413142381916
0.022104177872513147696
0.022078204771984234062
0.02205637997230316602
0.02202962636356631948
0.022007387282701140058
0.021980246464331637535
0.021958459215139374682
0.021931656796259659664
0.021910507142453718166
0.021884897610846811011
0.021864403016689824139
0.021839558624539463783
0.021819509862414453172
0.021794566178667242051
0.021774790092706258066
0.021749809000338109904
0.021730320990862670577
0.021705725394922749383
0.021686390630157870163
0.021662055688957248395
0.021642552835877976875
0.021617712694392131334
0.021598284842890173169
0.021573112398622640296
0.021553853232382326477
0.021529286426297280371
0.021510421409607426158
0.021486613161675303246
0.021468300847329240683
0.021444780147609067422
0.021426713018665610733
0.021403030399103708387
0.021384919226509792323
0.02136096691568418679
0.021343146783650349813
0.021319350718507074083
0.02130200842877596687
0.021279004733224995277
0.021262706195950321214
0.021240781714796340418
0.021225612730551970952
0.0212049193872275131
0.021190725799504522148
0.021170569112511149895
0.021156768464232617033
0.021137094455794210035
3.450916535666887988e-05
5.2178806677720235123e-05
6.4010765858783189594e-05
8.1835622058593510695e-05
0.00011993608175049516552
0.00015338164140298735029
0.00017060640326253324233
0.00018707717572963465853
0.00022336217673744475473
0.00027614927186306846302
0.00031998927868259746795
0.00034514796136492594718
0.00036597821760586050736
0.00040916022848649956974
0.00048221937569902553191
0.00054070589897106365387
0.00057403051683156040928
0.00060533447806839532461
0.00064999901249557852801
0.00070540696358882700422
0.00076559575565737076046
0.00082621241834932273706
0.00088100581385546264911
0.00092605521126702965064
0.00096629755882016046906
0.0010180263167783674266
0.0010970399883592251485
0.0012039222637289378418
0.0013244376871548017328
0.0014386240603875364436
0.0015306158937871939228
0.0015919791408146712151
0.0016248919945900731129
0.0016422523726868777476
0.0016639064921973264512
0.0017107819996327346384
0.0018392543383608467387
0.0020368141503574787102
0.0022047505326317209592
0.0023210126319083194089
0.0023844351155641080493
0.0024101434084206519066
0.0024263016982287656693
0.0024597837093168180636
0.0025622484634325675378
0.0028694285336687492052
0.0032238084752019289039
0.0034619917772305860808
0.0035750381702844887671
0.0036062289022871342817
0.0036148111127918300216
0.0036331209811299655654
0.0036798388436558838142
0.0037507925185664985242
0.0038305542863987704881
0.0039129722463386194461
0.0039879441554000749637
0.0040456391771681804795
0.0040813858887429489003
0.0040997548047558146633
0.0041128390453861731965
0.0041351909799641293347
0.0041889433929654757913
0.0043539436334678232113
0.0047705084082675089027
0.0051842313838947823648
0.0054852152797910686682
0.0056611533157833217322
0.0057390481903622798249
0.0057674353746710749907
0.0057927411434165647711
0.005846089844183375607
0.0059481181431160490281
0.006084411373354041766
0.0062376809164824131848
0.0063828386402331096366
0.006496865539793724581
0.0065681490839463096618
0.0066010832851711911257
0.0066127728117230753085
0.0066254941773401460417
0.0066620454490250750543
0.006801979511220644474
0.0072414392207821127664
0.0077213655869826100867
0.0080445963288594980051
0.0082239665281795201746
0.0083018604360070545611
0.0083302612940317280477
0.0083524874195796561943
0.0083976332745288630177
0.0085105414722630688684
0.0087343824146897883209
0.0089924277959271495947
0.009247957859802945213
0.0094588453757487294532
0.0095911392411783032846
0.0096413376619134804474
0.0096442052582491923085
0.0096269724875154699673
0.0096140987715583794276
0.009631715949622766601
0.0097601883759033322696
0.010212757591925265138
0.010704021458221925009
0.011021983451277720875
0.011210282177215672925
0.011315126929939746739
0.011369389217423041955
0.011397589850394582514
0.011425564264705418208
0.011480867737147704491
0.011627073540700461757
0.01206486401357362466
0.012618104403933249474
0.012999199678735902028
0.01318075469850594518
0.013220633800663827637
0.013206080000762621118
0.013115227089322695209
0.013036533195139799607
0.01302702332126995724
0.013066727620219775047
0.013289218003347778863
0.013787530620586713193
0.014176021161301444878
0.01441846157914051553
0.014539256544070696883
0.014595970220911745271
0.014661293093491697612
0.014810070445169199946
0.01512870949013211952
0.015464894294869314592
0.015735410913545667955
0.015902584776638185177
0.015973120895219638377
0.015984870583696655227
0.01597087711426103257
0.015882770804209550564
0.015693229284410897123
0.015576569347208147828
0.015541113328136199265
0.015552038682564824773
0.01567277384837837198
0.016219069859398221878
0.017315757010819346484
0.01811646105537270679
0.018554397826440652275
0.018736671636496487342
0.018850960923426272886
0.019072291453363001551
0.019634642020677082336
0.020406995853254495527
0.021056711201692036861
0.021453100427845761544
0.021589465601387823612
0.021582057947234112305
0.021413718717513720302
0.020930237709180236211
0.020662926212803123943
0.020631268079065231275
0.0207432202435483444
0.021364303441291847968
0.022440250585193961125
0.023087290880950361166
0.023397409981740609902
0.023569096402137338503
0.023738141830065333238
0.023925810221835496633
0.024070859474183980281
0.024129683723148980662
0.024122933842151125794
0.024007754665275406886
0.023495221864832601527
0.022736619359445545824
0.022262920400202182436
0.02204034079989922526
0.021972693525849081031
0.021967269485218980651
0.021980304726460977299
0.022041482637054611582
0.022142492422088128068
0.02222182862764600017
0.022277291265536496717
0.02230829501139372853
0.022316309090328709241
0.02231374634390327974
0.022288555846428095841
0.022183036617136983604
0.02413298484584352338
0.024242645517848975673
0.024364543627303190954
0.024491799768520113728
0.024618070873405312193
0.024737385195434034163
0.024846354918417159346
0.024942893835973391908
0.02502694085496220619
0.025098153405887665274
0.025157789740413029345
0.025208936321878601394
0.025257178155732647185
0.025308500545480734634
0.025369250739229017716
0.025443780218926796005
0.025533212195715960374
0.025634589504857044351
0.02574318762679542183
0.025852824603921596702
0.025957532417379618889
0.026052662839850568299
0.02613506875392268558
0.026203168624370189871
0.02625843388873782755
0.026303353624667541455
0.026341997610284849374
0.026378423298505669636
0.026417605580557411427
0.026463584139466887757
0.026518757144719420915
0.026584869435649260277
0.026662135512759716632
0.026749708702217975254
0.026846366812510666366
0.026949500809822817676
0.027056118757637394323
0.027162884323956266314
0.027267421930075187025
0.027366098977096062206
0.027455614170002556884
0.027535188639877059696
0.0276032518438065963
0.027659738105895871618
0.027706716098272025223
0.027744027770455106929
0.027772652424020400491
0.027792999510716079326
0.027806153064701143868
0.027813714109232893362
0.027817753047973313441
0.027818917564695049699
0.027817999222572307311
0.027815738269301750613
0.027813798347165980679
0.027812155578527179151
0.027809561217128592886
0.027801928548355510362
0.027777259025650272162
0.027737748999074784279
0.027693043456450263523
0.027648817929874409255
0.027602063924506085868
0.027557997417678010976
0.027512993170690495937
0.027471168208191051874
0.027429274153852226115
0.027391134732016205605
0.027353520110075826149
0.027320083833107230986
0.027286631763985044058
0.027257271152950707238
0.027226815317346400591
0.027199988463712868048
0.027170995494687318755
0.027144713761561387738
0.02711559473892785968
0.027088876596118815349
0.027059372935762149998
0.027032690447110443999
0.027003314612479827755
0.026976740156890308825
0.026946679989831221619
0.026918848826632445215
0.026887542213678783387
0.026859485374213711018
0.026829438595878031537
0.026804107088647680102
0.026776540128138098806
0.026753080554885625558
0.026725685435163296783
0.026701146240545307886
0.026671932903594382236
0.026645057150778833632
0.026613938648510228335
0.02658611291456720177
0.026555038119891013343
0.02652846618645237145
0.026498489349157761802
0.026472549363172746817
0.026442719457720503806
0.026416496171797594628
0.026386558090765677154
0.026360350821772609436
0.02632994976059489442
0.026303334959643653868
0.026272144256331574769
0.026244864518804294357
0.02621287511271099685
0.026184270168241423338
0.026150456765592085262
0.0261199408978042176
0.026084491101029616544
0.026053303045232661245
0.026017897002726182026
0.025987218109657077986
0.025952606842162922324
0.025922941439251435264
0.025889496856235139771
0.025861109542022846924
0.025828687840399974784
0.025800959321210268499
0.025768690943961589795
0.025740774811991998933
0.025708073330787895028
0.025679679574342750836
0.025646567980662046682
0.02561825688378711538
0.025585398177499947547
0.025557510150467196292
0.025524967681471413122
0.025497336971867925332
0.025465160036567738994
0.025438281092278802742
0.025406748782662438163