/*--------------------------------*- C++ -*----------------------------------*\
  =========                 |
  \\      /  F ield         | OpenFOAM: The Open Source CFD Toolbox
   \\    /   O peration     | Website:  https://openfoam.org
    \\  /    A nd           | Version:  12
     \\/     M anipulation  |
\*---------------------------------------------------------------------------*/
FoamFile
{
    format      ascii;
    class       volScalarField;
    location    "0.0073";
    object      k_0;
}
// * * * * * * * * * * * * * * * * * * * * * * * * * * * * * * * * * * * * * //

dimensions      [0 2 -2 0 0 0 0];

internalField   nonuniform List<scalar> 
75962
(
3.464287250193650848e-05
4.6652510655815776096e-05
6.0464637291994101863e-05
8.8821763804121224117e-05
0.00011692151875137673503
0.00013237471579897756228
0.00014293073450413133329
0.00016357353891215817223
0.00020435551443986893624
0.00024986227330251462638
0.00028361345570261474588
0.00030190181990326006708
0.00032244990582673305505
0.00037202866758380507281
0.00043676550720558751737
0.00048495467819204262369
0.00052552883878942456899
0.00056914652610518174682
0.00061325072831734314671
0.00065323869321097299476
0.00069466853036743915917
0.00074627495021876457098
0.00080646409407855571862
0.00086310607435166977232
0.00090839112588725421781
0.00094963866984299491816
0.0010032269976235658627
0.0010786095276459201336
0.0011712676826822951675
0.0012694929047341704971
0.0013591704261992003204
0.0014275831319033622114
0.0014693020190308229457
0.00149210084857627121
0.0015157978098934441272
0.0015641952654196148841
0.0016748830490436231698
0.0018207177348334208002
0.0019664425589903454343
0.0020888512272935256565
0.002171910565662316453
0.0022138121597678863187
0.0022332492383121392045
0.0022604394101368679819
0.0023308829824079694767
0.0025379800002029305646
0.0027946789253088361558
0.0029810278125855863007
0.0030963559331548345076
0.0031742876549571107103
0.0032506408134663007832
0.0033359806850045419131
0.0034165980702133037783
0.0034787956776998244478
0.0035253590514748383254
0.0035666198741527957612
0.0036081937460807670358
0.0036487767069435747026
0.0036831176619131593408
0.0037074580789376479321
0.003726895461186703444
0.0037580790450662980226
0.0038293662475927950709
0.0040388666892615899748
0.0044211125897131615947
0.0047615051556572562594
0.0050012532161589785124
0.0051312460545319205432
0.005182121123101964856
0.0051985392288473302597
0.0052147539656686534709
0.005250171851967918614
0.0053295782103579937908
0.0054424728876379642808
0.0055800103102852643272
0.0057304567993077979923
0.0058731060566381771207
0.0059830739147430037767
0.0060462978536628998738
0.0060744109353346965527
0.0061004037004042882888
0.0061582856071635471915
0.006336265947402834782
0.0067297488734220419632
0.007082369814574321007
0.0073322782258597148444
0.0074786311550163984962
0.0075481998738975803961
0.0075742585315684198694
0.0075841680462112115793
0.0075960377880712878426
0.0076224385974035021446
0.0076906027446463562369
0.0078846471156437131916
0.0081959660345933636055
0.0084925004263321640652
0.0087215100684616686522
0.0088469762734816170119
0.0088816443903420930206
0.0088784880616123874192
0.0088694062847516162013
0.0088826949487500420771
0.0089908522282489342081
0.0093342022476175911389
0.009645304047241646736
0.0098421210164031398132
0.0099723807533414511595
0.010070656518796681708
0.01014987465695781077
0.01021078842197943766
0.010260730239731806479
0.010330730430291720431
0.01047873942184099523
0.0108217024962247374
0.011230597034681238933
0.011563773363091221433
0.011752623424277616748
0.011810182912494688115
0.01180829150027837976
0.011777636717521529353
0.011767591509454028431
0.011799337100647341176
0.011987443730099293926
0.012532995248599014537
0.013087020431426534678
0.013519586331124731904
0.013825982067669275247
0.014005957087854641399
0.014082611550283168078
0.014100404562751722368
0.014105999442224414347
0.014126005933801180983
0.014214208726643192543
0.014437988850992976297
0.01459755617144626455
0.014662349165492102529
0.014670524450861217175
0.014651616255680514206
0.014543603152131674011
0.014314656193859421826
0.014164767461161076323
0.014108222895070290578
0.014109372270082954498
0.014191174859193080374
0.014609741288633459888
0.015343091833687512796
0.015826572569836942078
0.016132506436419013357
0.016411284252161633529
0.016784873399925376303
0.017314795276732644624
0.01796297677445666402
0.018616763153133823044
0.019139628497742061652
0.019443072412229610302
0.019539364080045789479
0.019528943841757608058
0.019388299226543472681
0.019011674457002785549
0.018817563573748863348
0.018802667043265809677
0.018920701987598684962
0.01953606749705490836
0.020501955477714498693
0.021050965155643041465
0.021258482619439508787
0.021294286952356779319
0.021288869013051048285
0.021286336899234609837
0.021294941250692984991
0.021297229837721011469
0.02126392636908977507
0.021068524510268030886
0.020473216685398445275
0.019926223918995480261
0.019619217045564373014
0.01950035272134875014
0.019481257215107291442
0.019497695541591478913
0.019595340532618819862
0.019763333340759678403
0.019872382055212751972
0.019929875742426710061
0.019953599348498430449
0.019958432965665826725
0.0199559122940332484
0.019936884057322405706
0.019863008620931061482
0.021639036247348125003
0.021700595459488464245
0.021809372438875880562
0.02193929608719431823
0.022083283741055999977
0.022232692908715743357
0.022377332648297370427
0.022508809157315526339
0.022620443290326093522
0.022711114439991676034
0.022783074194681795371
0.0228412136326843207
0.022891243412350974901
0.022939441185374297161
0.022989790199012444943
0.023045427093961737969
0.023107736468101689603
0.023175513429600096832
0.02324751357937553109
0.023320538798628765581
0.023392372132964057985
0.023460226699474871076
0.023521387826239650853
0.023574815721686896708
0.023621961851296228302
0.023664268951657688872
0.023705042864670202579
0.023746980640573959326
0.023794237613232675776
0.023849922817249406132
0.02391596607089758672
0.023993183222961886325
0.024080525729580960076
0.024177887451497081378
0.024282015512664067991
0.024391695223755019417
0.024504120913028205886
0.02461617477909086929
0.02472217987464101277
0.024819309827193925672
0.024902281854396347144
0.024967384113227155534
0.025013464676532728287
0.025041928722657171708
0.02505608255269939702
0.025063112671076009236
0.025065155459387200576
0.025064793971027812119
0.025060897933712855679
0.025051528720550737123
0.025044662225712027714
0.025038322700443680496
0.025029210184302163461
0.025015935226280153897
0.024997851275048936504
0.024975692400213553995
0.02494964269023180331
0.024920944150716873439
0.024889626941047959807
0.024857207985259924948
0.024823619692672091452
0.024790345861967256341
0.024757511422922734434
0.024725830426598205403
0.024695599736825505494
0.024666464711286320566
0.024638881700784848183
0.024612004496677615528
0.024586343687604018948
0.02456132730753889104
0.024537606774046639285
0.024514819804676506176
0.02449339562224375072
0.024472051839285805658
0.024451445912264484911
0.024429734348785196729
0.024408598317028767921
0.024386333185376120325
0.024364887746471358687
0.024342586045913789522
0.024320765579561906544
0.024297350006569008035
0.024273810958334571253
0.024248128123042819726
0.024223327557773451785
0.024197396458562239752
0.024173765393974578491
0.024149401633752148877
0.024127043499676720933
0.024103113996139891723
0.024080612840120987905
0.024056036829645417729
0.024032827483002571628
0.024007518371175862876
0.023983411370808751378
0.023957578083205754993
0.023933147085863467479
0.023907258060382841763
0.023883121169785873072
0.023856973085887644287
0.023832634661593417313
0.02380599628408843621
0.023781220354647136794
0.023754388982478360365
0.023729539558120450043
0.023702192924495019133
0.023676830671890705671
0.023648351298141603166
0.023622024052392744803
0.023592887332030021419
0.023565955381121522771
0.023536584720019064487
0.023509403509474759153
0.023479765764504927777
0.023452464222837247909
0.023422947140548034534
0.023395940065173065348
0.023367165248738538952
0.023341139996277106283
0.023313055959988452509
0.023287821377493678893
0.023259775500975504031
0.023234109992265376821
0.023205220514451618818
0.023178728698936345437
0.023149494582960648131
0.023123591575552642635
0.023095248487546980731
0.023070155801176463889
0.02304235262242408655
0.023017494997355461561
0.022989974639102454812
0.022965598244973538244
0.022938534591731282036
0.022914128125420981513
0.022886720377976687429
0.022861444275444186419
0.022833042723132624535
0.022806906706565519688
0.022777864171608892124
0.022751608993673878845
0.022722815842820331261
0.022697033734670413185
0.022668843995432334804
0.022643329237600411802
0.022615078263405669068
0.022589573856183084444
0.022560946356466032164
0.022535330773063730336
0.022506542032371533446
0.022480850010753530149
0.022451839677244993937
0.022426249209028172038
0.022397138378585947777
0.022371551020179371999
0.022342703658996525967
0.02231736732477750465
0.022289235562890408887
0.022264394897545787544
0.022236734777454102152
0.022211905970408500621
0.022184163387462766531
0.022159196164418162173
0.022130813728850947525
0.022105204505868992354
0.022075910009362896547
0.022049620210800806308
0.022020243090221849197
0.021994147026340369472
0.021965649566427859762
0.021940299573554568335
0.021912850443264731554
0.021888744321106073931
0.021862337245666097624
0.021839344626966572527
0.021813687633349627959
0.021791354596635528068
0.021765442767992186635
0.021742446291324445812
0.02171507919167809178
0.021690123476372627498
0.021661234850078415343
0.021635085377029857068
0.02160607259440685407
0.021580511593257252489
0.021552379568427756235
0.021527941516157493573
0.021500699564487402854
0.021477018629089898727
0.021450410093440855364
0.021426917918352862691
0.021400546705301524975
0.021377345883316460629
0.021351043465386264353
0.021328364282151394959
0.021302314649577075434
0.021279782864302650841
0.021254180986529393887
0.021231798384283892545
0.02120689636905620859
0.021185031127322843242
0.021160469813025453711
0.021139230403746087084
0.021114682007348794385
0.021093806353020490979
0.021069709363009024583
0.021049223527214652729
0.0210256122683896568
0.021005434079534347769
0.020981621499731813868
0.020961012433453163339
0.020936545992874179556
0.020915387861818863363
0.020890505039790275427
0.020869540651159861067
0.020844985011688462601
0.020824611334499934512
0.020800985427906967806
0.020780999070171522758
0.020757829787239917563
0.020738355263939887291
0.020715012366357289653
0.020695741599629148555
0.020672598323803539899
0.020653591332313096102
0.020630792746198198945
0.020612014442808551662
0.020589561018087319116
0.020570810446345538791
0.020547940442562473429
0.02052944011564753618
0.020506461763692127032
0.020488165329894742622
0.02046576804845942274
0.020447816908486477622
0.020425986402894728139
0.020408468015631536785
0.020386594206992021683
0.020369259011605609505
0.020347269937989884842
0.020329828056032742123
0.020307769352312460276
0.020290711472632973894
0.020268866565279913122
0.020252326075310665005
0.020231240596386073499
0.020215619375626891346
0.020195483386657869102
0.020180752098641688286
0.020161677902906287307
0.020147845334721387056
0.020129174064073360878
0.02011598107303836161
0.020098070082312617657
3.7886117630268979013e-05
5.0849645287097505991e-05
6.1164129898699841565e-05
8.367678584990641895e-05
0.00012451756009655384045
0.00015034530883676705754
0.00016717467104350756729
0.00019519499295766391572
0.00023315710814197769009
0.00026587083578386250205
0.00028838132980181572888
0.00031143214030273118006
0.00034936636516187690761
0.00040809551125873118034
0.00047572677769362227418
0.00052605480233221030197
0.00055059600240741333761
0.00057589798790367630922
0.00063360374312328192944
0.00069782927497907571313
0.00074431916074198256356
0.00078942053798254370033
0.00085131132142596526585
0.0009218273093605337809
0.00097803654253180469062
0.0010123611431308817462
0.0010448951622362720546
0.0011027128505636070097
0.0011943959410509500611
0.0013038389416515974977
0.0014016892261832088976
0.0014659106225599904949
0.0014984068082418782429
0.0015229100957358206788
0.0015692126229435098776
0.0016681557860776248092
0.0017995644013904335025
0.0019370132251145890951
0.0020594622244859673264
0.002152046149855057957
0.0022095693427817177101
0.0022384919168631986497
0.0022600535316549775697
0.0023017365234815024763
0.002415728963997395163
0.0027239105618672623116
0.0030539258154688012949
0.0032783759762704716215
0.0033864872932567314893
0.0034178675630502719854
0.0034299004476192611508
0.0034574990435951827479
0.0035306843794501311176
0.0036132574269535176065
0.0036802123074856623458
0.0037314616065777335072
0.0037694960224176191944
0.0037962857572169149759
0.0038139494704655355246
0.0038265410028964414769
0.0038427888839063818749
0.0038754304279036201099
0.0039584272892939599206
0.0042109904712392251178
0.0046260711642546054057
0.0049818524363695266058
0.0052286886419019443575
0.0053633424208670522557
0.0054177762183144706834
0.0054361535074599282372
0.0054540331158861692085
0.005493322752776945081
0.0055869161944917759138
0.0057148782497441078312
0.0058569185356673299572
0.0060011962092655487741
0.0061314628817415086498
0.0062298748038399440891
0.006286591431411042534
0.0063112248555071172318
0.0063307047848567389939
0.0063727372299732512259
0.0065032950446716388665
0.0069057555466058746785
0.0073943883375414860837
0.0077531293597053515393
0.0079735232847510627285
0.0080843170421439972118
0.0081296475543581186995
0.00814666716105519155
0.0081579350273772114482
0.0081769845409778631889
0.0082180424715800753921
0.0083220246908114296758
0.0085589955604347296714
0.0088120515248439491157
0.0090162061027657964402
0.009136890400963887035
0.0091776202365099323471
0.0091788430936250442471
0.0091734555743122996041
0.0091808392312410121161
0.0092516935577424200265
0.0095382076788166850895
0.0099291708359411662982
0.01021553095121306709
0.010423552956759360097
0.010577853503479195743
0.010691533681942297362
0.010768985329403272036
0.010819181342206571003
0.010870143784217292313
0.010969039977168295805
0.011230627541712208048
0.011709946195682103057
0.012127943292851007737
0.012392409252287284877
0.012497293147816040254
0.012510576784199589628
0.012492609663641199291
0.012470714660776132526
0.012478853228782577772
0.012566823417691622145
0.012932019908042465331
0.013490850134790040651
0.013924572154095527649
0.014221671167288906651
0.014388592599866736541
0.014456915425658850918
0.014478011387916983957
0.014500269678144479465
0.014558867263067617678
0.014748349595834547507
0.015030820744898603161
0.015229026171242672494
0.01532924417377270164
0.015357125595695280545
0.015354178849215098859
0.015313183230560776377
0.015154517955067600687
0.014987418002286164928
0.014908990373376023245
0.014896143733254362321
0.014930730803025250159
0.015147439801341621921
0.015805399322791090222
0.016445107885452888569
0.016913341393452092226
0.017300382119526488967
0.017714820174391136126
0.018248249246351280761
0.018901297752132385083
0.019579612433220015127
0.020143294386803622942
0.020487068173169534907
0.020605857607757231686
0.020600461395270303067
0.020466617054821382993
0.020051091679366809389
0.019794952283047072966
0.019753303449783252144
0.019828116938747846615
0.020273304775528078192
0.021153849062197350311
0.021719561020776753657
0.022028411572015189901
0.022228583831412813271
0.022415086958561907665
0.022593686422245195383
0.022714804461145716996
0.022755716284263892424
0.02274194686884364186
0.022603171859358922591
0.022051427691473373532
0.02138797293802735533
0.021008070406644849953
0.020854415394838971692
0.020825334243083800517
0.020838053914578207049
0.020920423022777620559
0.021060017974435567278
0.021142083584769773286
0.021180222064156629946
0.021190228975479372814
0.021189871405689498368
0.021179545527103611768
0.021132447596095851883
0.020981819186330234739
0.020802015159064244504
0.022796312517957044441
0.022801715584322760494
0.022814471996342261528
0.022849842954471243778
0.022958705397031924089
0.023164990754744829021
0.023369735814966000054
0.0235568193261921216
0.023717860821579839214
0.023846151921919151589
0.023940767895285451627
0.024005780757988787188
0.024049551178852809907
0.024081541146858329028
0.024111199264408883502
0.024147019605429566325
0.024192673831824003383
0.024251281058661290635
0.02432117490762877518
0.024400414663740224719
0.024483795649548854845
0.024567688117584376983
0.024647762492566723663
0.024721476616922664904
0.024786175064045373739
0.024843519738916665374
0.024894955435296010904
0.024943657437152561701
0.024993478287986658354
0.02504792900125389285
0.025110704449785654219
0.025183911444631838089
0.025268315849870208456
0.025363134588473220526
0.025467339217906670434
0.025578737931260191185
0.025695154825733760445
0.025812682135866814315
0.025928992905978630323
0.02603867251371865324
0.026138413789755433891
0.026224800108630780954
0.026294283368485400071
0.026345147372178669143
0.026378940562764522509
0.026397993794599040884
0.026407933018304307476
0.026413222972684096551
0.026414620021665335958
0.026413382632001040917
0.026407161031902010723
0.026402099086907562797
0.026397742812808624308
0.02639106085226885709
0.026377559777043591005
0.026356637134765621006
0.026330633745716425231
0.026301049171892836726
0.026268421751974385669
0.026233859218582816775
0.026197843204424697827
0.026161450614795900976
0.026124896415377001774
0.026089370348327353688
0.026054225782582211141
0.026020892782313401886
0.02598812124684691735
0.025957603317861739634
0.025927694243152197423
0.025899958474337798908
0.025872649705474131537
0.025847307658360192673
0.025822208828370031564
0.025798858788561414984
0.02577485294395477633
0.025752085949059706771
0.025727666056658507476
0.025704331905764626898
0.025679261198489757717
0.025655490479811710741
0.025630281500637445979
0.025606108093492254557
0.025579830320367716312
0.025554054698263838769
0.025525874212958783033
0.025499469175783714275
0.025471891477039945717
0.025447663002820287981
0.025422401001055323216
0.025399852067128119576
0.025374983360914968311
0.02535171422953314338
0.025325373999689392013
0.025300442575772550541
0.025272649782305967731
0.025246710950677000995
0.025218787548532860948
0.025193270733069646899
0.025165883263250879431
0.025140836738333876416
0.025113276347825917723
0.025088069438320131227
0.025060245089995540624
0.025034878896785815738
0.025006755659591491103
0.024980995467809598981
0.024951966029953615012
0.024925413130163373565
0.024895194624824028284
0.024867509502261846144
0.024836160279221010383
0.024807255139132119298
0.024775053358741118414
0.024745654883920373268
0.024713287434897857758
0.024684106730736763563
0.024652236848308799189
0.024623732324020288637
0.024592848151020717251
0.02456550637731914899
0.024535440083875648121
0.024508867787751870831
0.02447893672349476385
0.02445209260822138117
0.024421559432899864195
0.024394130954573253756
0.024363246927562476341
0.024336245004872886222
0.02430595078437981435
0.024279440621175554793
0.024249530902441033403
0.024223147423307021808
0.024193581269283764151
0.024167921983814944636
0.024138989147424589482
0.024113577504931225925
0.02408441089209642158
0.024058167917302527433
0.024027960264668281332
0.024000853812960128847
0.02397003654909560591
0.023942834400523894944
0.02391222306370971093
0.023885471922817889945
0.023855407052413984959
0.023828966285972065509
0.023799027468964020771
0.023772675800759326958
0.023742464360941004098
0.023716027161493555275
0.023685498562275170142
0.023658710947347706688
0.023627564036779676732
0.02360027288073342569
0.023568557825690349822
0.023541028358605935178
0.023509666556515849273
0.023482908768297040825
0.023452753537230013742
0.023427046629403019268
0.023397630115657156585
0.023371993141494677715
0.023342386703993703301
0.023316457856085989059
0.023286100437033673688
0.02325945047800878282
0.023228204969602334745
0.023200937848851545947
0.023169770442417497724
0.023143036773979819981
0.023112935429975722812
0.023087214887922022366
0.023058092260120621741
0.023033253512878597291
0.023004817003817495252
0.022980771485333666149
0.022952989373229645137
0.022929601781690647083
0.022901817229711057128
0.022877931727731060096
0.022848798199919927859
0.022823123235787834417
0.022792557537176533905
0.022765842107896019919
0.022735149924179687275
0.0227089421148819956
0.022678971578749422544
0.022653610682534311427
0.022624254142500088011
0.02259957704287805097
0.022570782904344457998
0.022546456170952650783
0.02251807052978608073
0.022494142258907490889
0.022466065205316528008
0.022442714304852461743
0.022414998583983315045
0.022391944923527525718
0.022364749106886641639
0.022342090315913797072
0.022315638840252040309
0.022293471742030723792
0.022267234784370648626
0.022245430380030257328
0.022219092554305406445
0.022197575290004083887
0.022171622746921269831
0.02215055417050594555
0.022125006885701761078
0.022103833404472379015
0.022077841988170063964
0.02205600094701517383
0.022029235827768618716
0.022006989999103124256
0.021979849792766275457
0.021958068026826864372
0.021931276245062518437
0.021910141100383192375
0.021884543680736136956
0.02186405834749393165
0.021839217845789529737
0.02181916726749259447
0.021794219943840259512
0.021774438415303000449
0.021749453644229706228
0.021729964637851456599
0.02170537035831290526
0.021686039937488809509
0.021661709155188394599
0.02164220864973560865
0.021617369935926000757
0.021597938888262419033
0.021572761426059107459
0.021553496846798129993
0.02152892417586262791
0.02151005642317961597
0.021486247567726147328
0.021467936671474445454
0.021444419389830701728
0.021426355718234632586
0.021402676692863012442
0.021384567542016789249
0.021360617858241715689
0.021342799706098827817
0.021319007115028050514
0.021301670811269511618
0.021278676036159658441
0.021262389055784501612
0.021240478329600749607
0.021225324472810655485
0.021204644603681956777
0.021190459875172228121
0.021170305429379400464
0.021156498798172818782
0.021136807270081141991
3.4525024592535716208e-05
5.2176784826139098624e-05
6.4002514310343297868e-05
8.1860058595765316939e-05
0.00011997869041794924762
0.00015337209010436340462
0.00017056525439706050982
0.0001870619662589482373
0.0002234124054189281193
0.00027619438511706785296
0.00031998228244372581069
0.00034510100829349409394
0.00036594991289297796981
0.00040921193386198040365
0.00048228727992422889626
0.00054069668562813826343
0.00057395957448762508542
0.00060527708698940026026
0.0006499884368622703152
0.00070542100086012210752
0.00076561382649589847064
0.00082622332124123712329
0.00088097434092883136151
0.00092597939186765437954
0.00096623165275808468519
0.0010180315149103207322
0.0010971401855634367161
0.0012040846995735473256
0.0013245981500904599904
0.0014387263038231126993
0.0015306203130845050502
0.0015918768865997284107
0.0016247157383098018504
0.0016420601299762631331
0.0016637570874199934193
0.0017107605936770825094
0.0018395813071394582529
0.0020371255706564924196
0.0022049163105120959776
0.0023210018941317747503
0.0023842660842486747795
0.002409888481767275166
0.0024260657217757587711
0.0024596594385219074791
0.0025625494069995420447
0.002870426434621646105
0.003224475882629231939
0.0034621848394959524493
0.003574828620092034958
0.0036058511918512802831
0.0036144647890128185803
0.0036328601600856447358
0.0036796949929033548679
0.0037506666234994366985
0.0038304424590083685151
0.003912863825526184669
0.0039878005192853374986
0.004045422086587604181
0.0040810949548843126339
0.0040994279869224509866
0.0041125248122084951188
0.0041349316702468672316
0.0041888617173625524934
0.0043545193808844934874
0.0047716894467038388147
0.005185041530686877731
0.0054856045711267386114
0.0056611520248480342449
0.0057387876316303976926
0.0057670833927652900147
0.0057924277394234922195
0.0058459201544667068959
0.0059480964689903525686
0.0060844932794804108822
0.0062377874622759378609
0.006382874519929003683
0.0064967612196119512227
0.0065678894206405644129
0.0066007163054926419957
0.0066123790235833885404
0.006625136424749265493
0.0066618376373478562294
0.0068024182952094291305
0.0072429116879691160177
0.0077223443128778416003
0.0080450469510946857887
0.0082239614952410444726
0.0083015472816660267064
0.0083298182599877597376
0.0083520740364856869975
0.0083973678343913296662
0.0085107039847877666294
0.0087347813667246927694
0.0089928831827030975693
0.0092483074420435292667
0.0094589319704726504412
0.0095909067858512934979
0.0096408818776753668622
0.0096437029479140030236
0.0096264206877556164621
0.0096136427048956162034
0.0096314273073254807328
0.0097606323510300331547
0.010214375453471360652
0.010704998783086757189
0.011022398842335141833
0.011210319638176653723
0.011314931250303450136
0.011369056428346662607
0.011397204743852671488
0.011425216026931053065
0.011480658218614114147
0.011627430811174212233
0.012066450566035242381
0.012619303832322955466
0.01299969254295312189
0.013180608877721261898
0.013220161160373503778
0.013205445614077845548
0.013114284356096248332
0.013035860232578121501
0.013026490224851569599
0.013066506087636925795
0.013290224099220251594
0.013788750137267923382
0.014176640013134152521
0.014418549849987116404
0.014538984146442246806
0.014595603802295393711
0.014661098829992514833
0.01481042950623817113
0.015129492831960297122
0.015465547956097643392
0.015735731899703814252
0.015902513731440841988
0.015972748020905726957
0.015984363775833815291
0.015970243907342612788
0.015881620460040671294
0.015692099217065706707
0.015575764896053103867
0.015540542426203143161
0.015551640086611227126
0.015673214673122062846
0.016222438504741202442
0.017319025325969999302
0.018118352333716412905
0.018554950704118174099
0.018736491330227957042
0.018850844898015296086
0.019072901647534890035
0.019636929822166575288
0.020409273668937650409
0.021058196799103524183
0.021453458167915429727
0.021588943344570107885
0.021581192154634835229
0.021411687723845239384
0.020927881845568749308
0.020661877346827315499
0.020630787401283580407
0.020743625411072566522
0.021367853563904214143
0.022442893602124102531
0.023088320536571532715
0.023397533618528861682
0.023569068762234180597
0.023738277619423098219
0.023925959404165503264
0.024070726834046575482
0.024129193528991274564
0.024122224641876102019
0.024006217731138344146
0.023491536299289950823
0.02273367383771377967
0.022261115256325091083
0.022039364316048134368
0.02197212375715791241
0.021966786943156003248
0.021979896858046358427
0.022041351118737780718
0.0221423370773469394
0.022221606639203680955
0.022276998549278722445
0.022307923775588541643
0.022315876851492982141
0.022313269265658762508
0.022287890133556864658
0.022181830946009985228
0.024133138591299493902
0.024242873611973119602
0.024364812223112899264
0.024492083181664736635
0.024618351558364524878
0.024737648159780079027
0.02484658080195079749
0.024943060235731319418
0.02502702710792982857
0.025098152529412255662
0.025157718935007945121
0.025208837596478971682
0.025257100498157488561
0.025308484933575976089
0.025369312029930563002
0.025443909501095592768
0.025533384100248763399
0.025634773135589743881
0.025743356793221934542
0.025852967402010762488
0.025957642941545344684
0.026052736754316300344
0.026135101848611487496
0.026203158474047041904
0.026258381463147718871
0.026303265950152369262
0.026341889389292164753
0.026378315121589519104
0.026417516493860170035
0.02646352252166933941
0.026518722045211842731
0.026584853481200897141
0.026662130837161356761
0.026749716763977360312
0.026846398588545025699
0.026949569705715280959
0.027056232151958205939
0.027163036441458156267
0.027267589099661242863
0.027366245322502522064
0.027455711113156713865
0.027535222229542816869
0.02760322427073595361
0.027659670210940661556
0.027706629393159550034
0.027743932494223893376
0.027772547124891217019
0.027792872528414769989
0.027805992215552296359
0.027813513906762666467
0.027817515343988168802
0.027818653868139926744
0.027817721757435655977
0.027815473093038292629
0.027813563326389775798
0.027811952214057425459
0.027809377742516468157
0.027801717823653364359
0.027776931491627843834
0.027737375538451621709
0.027692627665171835188
0.027648364771466378553
0.027601584114968911315
0.027557503179156700446
0.027512492654674557124
0.027470668519501712651
0.027428781114971656496
0.027390657097573194861
0.027353068592267007486
0.027319665258619330733
0.027286246975489175659
0.027256911210040573462
0.027226467493824093452
0.027199638825348204652
0.027170636428298103326
0.02714434618142239769
0.027115224475345849758
0.027088507619585797115
0.027059002246518956691
0.027032305868056161202
0.027002899856943086282
0.026976281396648437577
0.026946175020173549625
0.026918311521530763342
0.026887000390151582357
0.026858970887369593844
0.026828974333299719646
0.026803696603061779452
0.026776170917736579619
0.026752727644489434494
0.026725322362421893851
0.026700752750421868215
0.026671500092500004947
0.026644591875662971409
0.026613459215133482977
0.026585640755347091091
0.026554589139385593316
0.026528043343624675005
0.026498085693690803799
0.026472153332590932229
0.026442320449634213603
0.026416090446144520343
0.026386147586506300544
0.026359939186579760956
0.026329540638665448887
0.026302925667410523985
0.026271726865914068333
0.026244427170217136253
0.026212406002694577795
0.026183763058616030955
0.026149914158210510462
0.026119372849227918965
0.026083912423540991238
0.026052726616465845394
0.0260173315713084774
0.02598666889176412878
0.025952077126781814692
0.025922433589192730996
0.025889012004583128457
0.025860645933129595975
0.025828240050803304845
0.025800518724217149508
0.025768247722978157577
0.025740320907839148168
0.02570760469317125152
0.025679197511892470213
0.025646079293133894339
0.025617770344225659906
0.025584921657169353709
0.025557048211217982953
0.025524521416800526052
0.025496905254764678367
0.02546474029136467504
0.025437868206477236982
0.025406336776983371589