/*--------------------------------*- C++ -*----------------------------------*\
  =========                 |
  \\      /  F ield         | OpenFOAM: The Open Source CFD Toolbox
   \\    /   O peration     | Website:  https://openfoam.org
    \\  /    A nd           | Version:  12
     \\/     M anipulation  |
\*---------------------------------------------------------------------------*/
FoamFile
{
    format      ascii;
    class       volScalarField;
    location    "0.0073";
    object      nut;
}
// * * * * * * * * * * * * * * * * * * * * * * * * * * * * * * * * * * * * * //

dimensions      [0 2 -1 0 0 0 0];

internalField   nonuniform List<scalar> 
75962
(
4.879327847090628637e-07
5.6537967090159761033e-07
6.4311929685650864351e-07
7.7891297575041647493e-07
8.9316616883689181162e-07
9.4980788255769199765e-07
9.8622457610127208203e-07
1.0541440000293473021e-06
1.1773562036736027326e-06
1.3010452550117045789e-06
1.38531396537994472e-06
1.4283558026112551111e-06
1.4750472365539562609e-06
1.5830790791755809891e-06
1.7141849061575402104e-06
1.8051368353218585273e-06
1.8778528135114987225e-06
1.952853471958831408e-06
2.0257104524608872998e-06
2.0892745310671499053e-06
2.1529907515104330477e-06
2.2299568237424370914e-06
2.3165369784562630445e-06
2.3948770638423120639e-06
2.4552201641730260645e-06
2.508580652581080818e-06
2.5765340041904561221e-06
2.6696615854505041314e-06
2.7800111481283321143e-06
2.8922481910262563573e-06
2.9906478106271188475e-06
3.0629514659082015985e-06
3.1053080648327026018e-06
3.1271632619135965307e-06
3.1496617788390197433e-06
3.1971946737090154018e-06
3.3058875067767501473e-06
3.4444156362697011934e-06
3.5771879405158186173e-06
3.6843976191092746379e-06
3.754450023124520497e-06
3.7879588884847975429e-06
3.8019324065391030107e-06
3.8222889223699654264e-06
3.8784753064500601614e-06
4.0439026865393788775e-06
4.2407183588812986109e-06
4.3769925529127049602e-06
4.4579033253412316825e-06
4.510569134518631191e-06
4.5613079297229258097e-06
4.6175742031744474624e-06
4.6698248475723416276e-06
4.7089168710647072099e-06
4.7370603914719920934e-06
4.7613951673956497225e-06
4.7857370441483407694e-06
4.8092377078591439668e-06
4.8284756895757179455e-06
4.8410606838221122939e-06
4.8503671915014878312e-06
4.8671941302282383768e-06
4.9095802748975726388e-06
5.0381130858097262492e-06
5.2674568961953997966e-06
5.462872535813613088e-06
5.595051887716907166e-06
5.6635394617577912104e-06
5.6876958110765877998e-06
5.6927801856318149598e-06
5.6976843393197080728e-06
5.7129725048539434397e-06
5.7519245891917641117e-06
5.8084417719224800338e-06
5.8772598818880844907e-06
5.9518254395638571055e-06
6.0213050166549045297e-06
6.0732695555221591122e-06
6.1011121589252159639e-06
6.1110679239186356374e-06
6.1198541036211501237e-06
6.144460941458674988e-06
6.2279332699446793254e-06
6.413808753598126592e-06
6.5752939385678172145e-06
6.6858161333548529959e-06
6.7476654853053137114e-06
6.7743772073277330376e-06
6.781414978294451422e-06
6.7811610748707553883e-06
6.7817423754910901052e-06
6.7887560473231274295e-06
6.8141886126443351052e-06
6.8945485670031148671e-06
7.0244362008441226013e-06
7.1454969380356170308e-06
7.2363202358544015988e-06
7.2832809639313718917e-06
7.29256417621502686e-06
7.2862313790936854602e-06
7.2774309979839732745e-06
7.2777606705284594781e-06
7.3165826738903719199e-06
7.4495409769112863073e-06
7.567628389242109692e-06
7.6392809223481456833e-06
7.6844005706544318607e-06
7.7168442807309090388e-06
7.7417798866672724652e-06
7.7596019874163411597e-06
7.7731471056930172037e-06
7.7941412152860554708e-06
7.8441605364665374851e-06
7.9657279452217801886e-06
8.1092482158955504594e-06
8.2231087205907652085e-06
8.2844194282526703517e-06
8.2990424332532541191e-06
8.2926573459605090917e-06
8.2761693637557706444e-06
8.2668453459046132355e-06
8.2721364076827919867e-06
8.3316486051156073042e-06
8.5128579384353731822e-06
8.6931615872644171528e-06
8.8297177631625596925e-06
8.9231944209720931779e-06
8.9750025025740888762e-06
8.9933784663584505472e-06
8.9928387170801312773e-06
8.9883600787836668536e-06
8.9884364558895548373e-06
9.0100380432117219869e-06
9.0743119448634626425e-06
9.1181137624388762991e-06
9.1320776112514997336e-06
9.1283194322744612214e-06
9.1161461549342944724e-06
9.0763612056701722795e-06
8.9983842701327419316e-06
8.9448254798981760463e-06
8.9206698794367222379e-06
8.9148063151189021498e-06
8.9342090528265679527e-06
9.058062287213187002e-06
9.2763163002685228547e-06
9.4150639719379989196e-06
9.4991609350365663041e-06
9.5742105260037888015e-06
9.6757192853254689509e-06
9.8203020485835960002e-06
9.9954240831926604563e-06
1.0168719910831733156e-05
1.03035849602758621e-05
1.0377982701324896668e-05
1.0396600353098167332e-05
1.0386678109531204126e-05
1.0342262623910762547e-05
1.0234247754528793774e-05
1.0174527197547657658e-05
1.0163320252734857774e-05
1.0187843870051545555e-05
1.0344257024026996808e-05
1.0589840189915160457e-05
1.0723667781984454132e-05
1.0769172583449501243e-05
1.0770837205292524134e-05
1.0761987463110256997e-05
1.0753852291125041876e-05
1.0748542279685759817e-05
1.0741668979354599566e-05
1.0725886169613611202e-05
1.0669372038133704438e-05
1.0510587043223437457e-05
1.036178451731803133e-05
1.0274289789380057069e-05
1.023585628636517935e-05
1.022368165872366705e-05
1.0220853627194756877e-05
1.0239162961419850459e-05
1.0275846390201673333e-05
1.029705582734355319e-05
1.030482074696958218e-05
1.0303818714247959837e-05
1.0297925579716345765e-05
1.0290136889920265131e-05
1.0278124779479458871e-05
1.0252045289634282535e-05
1.0414387728187122424e-05
1.0421891955754209832e-05
1.0440695622991908874e-05
1.0464456958347548066e-05
1.0491438498437969119e-05
1.0519560993408299846e-05
1.0546409854589215498e-05
1.0570026717674441358e-05
1.0588876819954337876e-05
1.060273663093298163e-05
1.0612165668428459958e-05
1.0618329126889466368e-05
1.0622571604087609109e-05
1.0626359331432862196e-05
1.0630619212799424762e-05
1.0636074659125142541e-05
1.0643040418223705926e-05
1.0651231975799402833e-05
1.0660356724376416959e-05
1.0669675823986736379e-05
1.0678680100974435334e-05
1.0686736624509915079e-05
1.0693234202555319606e-05
1.0697945510957811955e-05
1.0701209096603028263e-05
1.0703357907600470731e-05
1.0705142293633784995e-05
1.0707170295055664551e-05
1.071037467977104237e-05
1.071544883475583698e-05
1.0722816592462221756e-05
1.0732648017092066939e-05
1.0744692137629310302e-05
1.0758908202377480575e-05
1.0774556057428472764e-05
1.0791354571083201701e-05
1.0808677508746552496e-05
1.0825838671086021234e-05
1.0841596806780949287e-05
1.0855346052862245489e-05
1.0865948717304960684e-05
1.0872613471331507671e-05
1.0875107669034022817e-05
1.0873752870493089541e-05
1.0869278612392861694e-05
1.0863254565378565353e-05
1.0856151890891781802e-05
1.084853412055749218e-05
1.0840164870700475742e-05
1.0830615677523501217e-05
1.0821611627508727783e-05
1.0812730824741377281e-05
1.0803258600256407179e-05
1.0792894608794786643e-05
1.0781500526284580653e-05
1.0769237374794843435e-05
1.07561476720976692e-05
1.0742500889316690589e-05
1.0728303064348674705e-05
1.0713879124302742393e-05
1.0699211510161983637e-05
1.0684617651131085044e-05
1.0670124913423235867e-05
1.0655888836751220461e-05
1.0641976449800194079e-05
1.0628312651961436392e-05
1.0614995677992047847e-05
1.0601841054017274314e-05
1.0588956438988879964e-05
1.0576217195430555603e-05
1.0563764389840993467e-05
1.05515219787871041e-05
1.0539584378047320913e-05
1.0527676189594925384e-05
1.051593821102608289e-05
1.0503972184146129738e-05
1.0492138599400593045e-05
1.0480071073173694517e-05
1.046818976066278053e-05
1.0456136470823002713e-05
1.0444199241814519579e-05
1.0431931261671271728e-05
1.0419646428543834552e-05
1.0406907805261940371e-05
1.0394362886830308497e-05
1.0381579268250352044e-05
1.0369294879975760496e-05
1.0356862285010383124e-05
1.0344871706399964202e-05
1.0332557855995635646e-05
1.0320563961859819703e-05
1.0308137994286645272e-05
1.0296015379519426189e-05
1.0283451632162924857e-05
1.0271152427003863664e-05
1.0258490705589820138e-05
1.0246137261883091557e-05
1.0233481157621187371e-05
1.0221211095838531892e-05
1.0208521770933406329e-05
1.0196230590106911755e-05
1.0183457544338846357e-05
1.0171092247655792655e-05
1.015829666173035444e-05
1.0145934555349145936e-05
1.0133048535114537271e-05
1.0120597193359316896e-05
1.0107489724621279814e-05
1.0094851717697817702e-05
1.0081622506850529785e-05
1.0068872694452709156e-05
1.0055610305144054389e-05
1.0042824118930039889e-05
1.0029522056283588993e-05
1.0016727979421924174e-05
1.000347001638800514e-05
9.9907571807290397917e-06
9.9776764193326648845e-06
9.9651929409809498253e-06
9.9522805920695603518e-06
9.9399878402200113597e-06
9.9271063776118872285e-06
9.9147435065175347745e-06
9.9017022434214829404e-06
9.889180593647227532e-06
9.8760809935309924203e-06
9.8636991078655333556e-06
9.8508044992607227759e-06
9.838611506531946157e-06
9.8258497919285470564e-06
9.8137258048466176466e-06
9.8010444325676154966e-06
9.7890440281361756274e-06
9.7764822482004667519e-06
9.7644979374851608784e-06
9.751885109925472275e-06
9.739736332324138522e-06
9.7269305195153342675e-06
9.7146149172370776696e-06
9.7016873562569941233e-06
9.6893606294574470734e-06
9.6765016345489021426e-06
9.6642929404339012714e-06
9.651582068128186382e-06
9.6394513993129907252e-06
9.6267487913071478535e-06
9.6146409799221121717e-06
9.6018777937589039779e-06
9.5897643958774369627e-06
9.5769843096373216706e-06
9.5648716348521811237e-06
9.5520615796077334953e-06
9.5399879230161694943e-06
9.5271743751940365404e-06
9.5151188971664123363e-06
9.5023788680624803949e-06
9.490393795085664099e-06
9.4778231388429866615e-06
9.4659611217301461902e-06
9.4535094760870634037e-06
9.4416695776521177762e-06
9.4292207456512273521e-06
9.4173725307844794781e-06
9.4048090363324260177e-06
9.3928447924954600089e-06
9.3801064684063093657e-06
9.3680139535228370494e-06
9.3552721298690753263e-06
9.3432328463296132371e-06
9.330689665931289403e-06
9.3188215452328300356e-06
9.3065155382003647946e-06
9.294928904780609013e-06
9.2828643539165119471e-06
9.2715364438156040402e-06
9.2596549679794668203e-06
9.2484912237754456164e-06
9.2365794287524093326e-06
9.225296861143698237e-06
9.2130965240661528786e-06
9.2014155022618087965e-06
9.1889072141697296635e-06
9.1769858321004740256e-06
9.1644632504153912886e-06
9.1526792746365779149e-06
9.1403573621381763756e-06
9.1288269790360093681e-06
9.1167110261223829963e-06
9.1053593855341597758e-06
9.0933970481954955526e-06
9.0821049495675932803e-06
9.0702123909416510226e-06
9.0590013163105274777e-06
9.0471420002964209295e-06
9.0360592132077110475e-06
9.0242709408237676817e-06
9.0132356739820115334e-06
9.0015582562556511781e-06
8.9905698618679722264e-06
8.97905585730759281e-06
8.9681927247458940696e-06
8.9567670082512597423e-06
8.9460532107738663312e-06
8.9346479384209033915e-06
8.924028903911217659e-06
8.9127380421611691468e-06
8.9022203508277896253e-06
8.8910510587041516279e-06
8.8806167033002819346e-06
8.8694227471799163426e-06
8.858914230606175906e-06
8.8475985269757706806e-06
8.8369894623047992425e-06
8.8256006754474407636e-06
8.8150468238163961967e-06
8.803741823580589284e-06
8.7933274096534070957e-06
8.7822348161100461425e-06
8.7719188519030960621e-06
8.760939635142552407e-06
8.7507490333959745793e-06
8.7397505723563006065e-06
8.7296194501582048599e-06
8.718679761956008622e-06
8.7086201676120007141e-06
8.6977690917612697768e-06
8.6877731034432595532e-06
8.6770106674484937198e-06
8.6670367455630456462e-06
8.6562029090992143314e-06
8.6462980457271296312e-06
8.6354584182248697653e-06
8.6256125802021159832e-06
8.6149117719929410618e-06
8.6051544839058123295e-06
8.5945888656924896684e-06
8.5849384966047430384e-06
8.5743797573365691366e-06
8.5647833873181003831e-06
8.554216419264858452e-06
8.5446129851658646036e-06
8.5340467435194351136e-06
8.5245388094384114819e-06
8.5140325355364040457e-06
8.5046474308754603912e-06
8.4943152738978701269e-06
8.4851374357719670181e-06
8.4750194946260055766e-06
8.4660428639882562898e-06
8.4561630946742422348e-06
8.4473907967475174506e-06
8.4376124192014707648e-06
8.4289908698001301022e-06
8.4193903153449507119e-06
5.2288133464984532092e-07
6.0565013916303812087e-07
6.6379090450413202746e-07
7.7559044501131551139e-07
9.4555889448854802649e-07
1.0384824822388947067e-06
1.0942936323182146413e-06
1.1815065847391601179e-06
1.2904123800519554954e-06
1.3771078280253283334e-06
1.4332758235901252825e-06
1.4883621929360682648e-06
1.5751907907824494567e-06
1.7011929468547768877e-06
1.8355450593693518056e-06
1.9290213281617171691e-06
1.9722215129651106568e-06
2.0155426011871911774e-06
2.1124835694440512029e-06
2.2154914966800097714e-06
2.2865737501507198954e-06
2.3531652941188186811e-06
2.4419368113119538569e-06
2.5393255264795684932e-06
2.6138613467400152512e-06
2.6575305990956093768e-06
2.6979655623696270259e-06
2.7695608928032681699e-06
2.8803057257378776033e-06
3.0072957092501855684e-06
3.1160421273039500788e-06
3.1845444919128684695e-06
3.2174812903034874615e-06
3.2413989080790504717e-06
3.2879003291696959863e-06
3.3874575818119415763e-06
3.5158788684213883869e-06
3.6451917291195610472e-06
3.7561251988471050009e-06
3.8370620621740473684e-06
3.8853986672339916133e-06
3.9080846332174566082e-06
3.9241130227352612935e-06
3.9572814214682885665e-06
4.0509071602650334026e-06
4.2981340910639116848e-06
4.5482080694181855371e-06
4.7094441233545462173e-06
4.7834143516752452259e-06
4.8023149263572046947e-06
4.8074078744292495069e-06
4.8232743151220652293e-06
4.8705661080073809266e-06
4.9238115047249123881e-06
4.965811867732291235e-06
4.9968246520821708978e-06
5.0187635170324335554e-06
5.0330907580955866847e-06
5.0412987457828586788e-06
5.0461100987862073566e-06
5.0532820458533674336e-06
5.0711210336658949429e-06
5.1213838601029188481e-06
5.2780440734346780487e-06
5.5282685290048091896e-06
5.7331553511968969818e-06
5.8696268313079296331e-06
5.940782484453649175e-06
5.9668174856093521063e-06
5.9728187494526924694e-06
5.9784680085571041691e-06
5.9957302586029759725e-06
6.0422749530320600194e-06
6.1067984471779511414e-06
6.1779140676535444291e-06
6.2492137588613481873e-06
6.312333168996726263e-06
6.3584421968942755123e-06
6.3829560954144373377e-06
6.39104487481229891e-06
6.396444379007993891e-06
6.4131256052349162029e-06
6.4737149076583651764e-06
6.6658894166990983598e-06
6.8930930024809139035e-06
7.0536555528202993478e-06
7.1484536933346863146e-06
7.1931086042726947194e-06
7.2083327046104838851e-06
7.2108971854128245052e-06
7.2108640267441053323e-06
7.2142336359228394693e-06
7.2272364386555173807e-06
7.267593390036283972e-06
7.3650810435170983246e-06
7.4680418828029063419e-06
7.5489277395320220136e-06
7.5941339072241318257e-06
7.6058407688578797979e-06
7.6010853697098395781e-06
7.5935749327249252454e-06
7.5913145185878586505e-06
7.6150765537458244909e-06
7.7263214923284239706e-06
7.8777370959222972987e-06
7.9851245776062829997e-06
8.0605139347236110246e-06
8.1143822880432578594e-06
8.1522555614175642817e-06
8.1760938091592144991e-06
8.1894585027906482185e-06
8.2029964914197354671e-06
8.234408536099400942e-06
8.3258827165807983866e-06
8.4957507842386094154e-06
8.6402099085331791087e-06
8.7280576869195130815e-06
8.7589961128760436077e-06
8.7576337871143474065e-06
8.7453125726263260351e-06
8.7315526302342663136e-06
8.728295068276963086e-06
8.7527199878044770003e-06
8.8723220128819819171e-06
9.055811955671244e-06
9.1940362225769385775e-06
9.2853374674291944786e-06
9.333335647866388809e-06
9.349058046525705545e-06
9.349394102265131266e-06
9.3500484550076507834e-06
9.3623287027368460927e-06
9.416293391185992566e-06
9.4994827852383753776e-06
9.5553876509129930048e-06
9.5802266669535864567e-06
9.5823389379223577182e-06
9.5747887926232343512e-06
9.5554435430262098532e-06
9.4993595281233641987e-06
9.4401926242459463712e-06
9.4088325013528058174e-06
9.3982003165489848734e-06
9.4024738173648217182e-06
9.4634766850151510109e-06
9.6596926505353928439e-06
9.8466760700333323442e-06
9.979121433731240177e-06
1.0085711207792229439e-05
1.0198647888536039859e-05
1.0343739461127628867e-05
1.0519807558484932451e-05
1.0699534652964801579e-05
1.0845129302309614608e-05
1.0929955238807921206e-05
1.0954189446307298599e-05
1.0945224715013238931e-05
1.0902278584404060153e-05
1.0783677964350842619e-05
1.0706835686118347219e-05
1.0687989260835030909e-05
1.0700605857017494673e-05
1.0811886689452351252e-05
1.1036680640062439675e-05
1.1175847245183438504e-05
1.1247395726792232501e-05
1.1290574285961432104e-05
1.132995112076020919e-05
1.1367120032645616781e-05
1.1389705952126585658e-05
1.1392115011231765241e-05
1.1380815186959814726e-05
1.1338393391534195727e-05
1.1191863033776242587e-05
1.1014341615838451255e-05
1.0908238071210468788e-05
1.0860544769888175575e-05
1.0845360748968909003e-05
1.0841107045824959577e-05
1.0854856838724917433e-05
1.0883481436754243094e-05
1.0897144310920390487e-05
1.0899428216410239297e-05
1.0894449798995849699e-05
1.0886798413787598933e-05
1.0876609580933773987e-05
1.0857035426642401598e-05
1.0810881769503753735e-05
1.0756960736471269191e-05
1.0974873661706180484e-05
1.0968545836775960882e-05
1.0963982033580720621e-05
1.0964818467684074609e-05
1.0983149222682441707e-05
1.1024687915643036898e-05
1.1065623087393451868e-05
1.1102140272474833488e-05
1.1132327674565606601e-05
1.1154687229476019231e-05
1.1169072492570326007e-05
1.1176488667367192304e-05
1.1178918537768387244e-05
1.1178584892038778695e-05
1.117769227714427383e-05
1.117821414052984454e-05
1.1180996290476860134e-05
1.1186748810983726917e-05
1.1195072326911206239e-05
1.1205505261719612972e-05
1.1216840507725717917e-05
1.1228241006428055947e-05
1.1238718949819091541e-05
1.1247702797717011472e-05
1.1254598796170819515e-05
1.1259794744581607293e-05
1.1263625968869322834e-05
1.1266814486359120467e-05
1.1270230943959226924e-05
1.1274664205395478291e-05
1.1280939986516211372e-05
1.1289521672351778629e-05
1.1300566932399582463e-05
1.1313883094691612653e-05
1.1329222366509824807e-05
1.1346080959645086478e-05
1.1363965844744224469e-05
1.1382008553286109559e-05
1.1399699983362130231e-05
1.141585915284595329e-05
1.1429775167006232095e-05
1.1440718477063329693e-05
1.1447933322990589441e-05
1.1451063544790961312e-05
1.1450462389020698667e-05
1.1446649388710255577e-05
1.1440855130022387597e-05
1.1434056053579510367e-05
1.1426420261749510764e-05
1.1418223562381228279e-05
1.1408959659748548257e-05
1.1399945381252875846e-05
1.1391091880577688605e-05
1.1381744329329242542e-05
1.1370934422856661573e-05
1.1358531785653171845e-05
1.1345043683703934324e-05
1.1330796881446663361e-05
1.1315908763458205086e-05
1.1300617534037091713e-05
1.1285025087505245415e-05
1.1269361296328231454e-05
1.1253670843276730468e-05
1.1238209909690835499e-05
1.1222840032293059732e-05
1.120787083398901542e-05
1.1193033857896989808e-05
1.1178693171722373534e-05
1.1164493279642335869e-05
1.1150769831580599972e-05
1.1137146904230162944e-05
1.1123957267648165517e-05
1.1110831492615451477e-05
1.1098094770868821994e-05
1.1085229153056068028e-05
1.107264101360009838e-05
1.1059707035418956438e-05
1.1047015618643994886e-05
1.1033961146013550013e-05
1.1021197868458583563e-05
1.1008139198094543911e-05
1.0995316346763069323e-05
1.098205314198288731e-05
1.0968906251471058781e-05
1.0955248380351945053e-05
1.0941975323825692767e-05
1.0928455129679242312e-05
1.0915661067099464391e-05
1.0902656506490548345e-05
1.0890247833093451152e-05
1.087735722291475267e-05
1.0864824201693862869e-05
1.085164582668553299e-05
1.0838779131007271876e-05
1.0825306897431903226e-05
1.0812237818744998693e-05
1.0798750627191634849e-05
1.0785787478760210196e-05
1.0772434689254380434e-05
1.0759595274980065274e-05
1.0746230146725147027e-05
1.0733380074959640837e-05
1.0719980447219219509e-05
1.0707116224065130831e-05
1.0693671950334496587e-05
1.0680743286950625685e-05
1.0667126738044676874e-05
1.0654051291687643163e-05
1.0640203820508307105e-05
1.0626908347195186623e-05
1.0612839491806576593e-05
1.0599301145291362944e-05
1.0585066519682787204e-05
1.0571438994368648976e-05
1.0557186105361158972e-05
1.0543623222736703417e-05
1.0529495752282878925e-05
1.051609671300894322e-05
1.0502199503688221474e-05
1.0489069201518654852e-05
1.047536818507926429e-05
1.0462424708190483559e-05
1.0448776112827939529e-05
1.0435797715923559375e-05
1.0422042600791476763e-05
1.0408959340430494426e-05
1.0395147093913963216e-05
1.038217109735038531e-05
1.036850112770688148e-05
1.0355646917661004444e-05
1.0342077156214751844e-05
1.0329269151385238153e-05
1.0315792872049342168e-05
1.0303160528180865943e-05
1.0289841950847592052e-05
1.0277285475216023667e-05
1.0263940231998027616e-05
1.0251228349210250119e-05
1.0237680945757729475e-05
1.0224802410278395145e-05
1.0211141175886022213e-05
1.0198257983687270665e-05
1.0184657592114171979e-05
1.0171889051596032688e-05
1.0158425799445139638e-05
1.0145745440145041466e-05
1.0132331562130167252e-05
1.0119692204486625464e-05
1.0106241412723858039e-05
1.0093603565473711146e-05
1.00801041731017753e-05
1.006740982072947155e-05
1.0053796878469061535e-05
1.0041013314650601662e-05
1.0027297470913785964e-05
1.0014480398405862447e-05
1.0000856490674277791e-05
9.988219996614180671e-06
9.9748698690208538036e-06
9.9624753873377481258e-06
9.9493030146724839162e-06
9.9369455495431120723e-06
9.9237558996124666252e-06
9.911359745604261096e-06
9.8980333404238029404e-06
9.8855049271446099416e-06
9.8720084506645452472e-06
9.8593643449042392613e-06
9.8458979338780767645e-06
9.8333798535579493121e-06
9.8201536144533490722e-06
9.8078662140058743731e-06
9.7948655342497101159e-06
9.7827851025814475868e-06
9.7699516588891103987e-06
9.7580622136221548552e-06
9.7453912133002961577e-06
9.7336649960431099012e-06
9.7210168582501395572e-06
9.7092070132724499107e-06
9.6962933272189798922e-06
9.6841219371783068039e-06
9.6709207199996592903e-06
9.6585433019953198215e-06
9.6453293438819324361e-06
9.6330740620660917288e-06
9.6200287809894369852e-06
9.6079700201122329706e-06
9.5950732000106878864e-06
9.5831782839071224107e-06
9.5704203678956235938e-06
9.5586193122869959557e-06
9.5459676202749930811e-06
9.5342702284491421074e-06
9.5217026063880335881e-06
9.510145477147317154e-06
9.4976723679749636771e-06
9.4861955425897975553e-06
9.4738501241632926668e-06
9.4624740636292981212e-06
9.450303602903650438e-06
9.4390491457019214225e-06
9.4269419969139110565e-06
9.4157826165929511852e-06
9.4036730571332114445e-06
9.3925931064816498841e-06
9.3805845372886219709e-06
9.3696188951829774091e-06
9.3577158840713072743e-06
9.3467471292815105355e-06
9.3347685678965564016e-06
9.3236757331554696615e-06
9.3115499175922482295e-06
9.3003869898028085675e-06
9.2881970951294372355e-06
9.2771470796909009243e-06
9.2650463784654468421e-06
9.2541483825736382465e-06
9.2423172108695191002e-06
9.2315747211212493162e-06
9.2199225436667908506e-06
9.2092912092345652851e-06
9.1976354431302929021e-06
9.1870786174025019375e-06
9.1754322906845935099e-06
9.1649531344996121741e-06
9.1534053819519670266e-06
9.1429753599989165854e-06
9.1314997578315360705e-06
9.1210510802089522336e-06
9.1094861889702381927e-06
9.0990700893404209216e-06
9.0874523780803635932e-06
9.0770885523294872027e-06
9.0656155171027700125e-06
9.0553513238136101659e-06
9.0440549909579120346e-06
9.0339236313555326376e-06
9.022704713387843335e-06
9.01264133842766835e-06
9.0014052199639111012e-06
8.9913489475410952282e-06
8.9800729761671052191e-06
8.9700942155799691488e-06
8.9588678979983348553e-06
8.9490057798535806134e-06
8.937962635787510143e-06
8.9283357814802420752e-06
8.9175357815687892411e-06
8.9081618185835708529e-06
8.8976364950304178889e-06
8.8884826465977643303e-06
8.8780859697412037979e-06
8.8690297770078494946e-06
8.8587502331026747831e-06
5.1221068348420918483e-07
6.2940015112883442896e-07
6.9663397288660115892e-07
7.871322364912831257e-07
9.5224740985719564019e-07
1.0761180822769100072e-06
1.134146792425821023e-06
1.1868077520065119586e-06
1.2959049697276990045e-06
1.4399209705029120652e-06
1.5489335470901100544e-06
1.6075559425481433164e-06
1.6542053630874485831e-06
1.7478609459253209425e-06
1.8961857014281339253e-06
2.0064921256003082326e-06
2.0659640648808836432e-06
2.1200755852096831003e-06
2.1953731810777184448e-06
2.2854422099389596085e-06
2.3792961295566091368e-06
2.4699773200107784531e-06
2.5487947284702743796e-06
2.6113331367055549579e-06
2.6656163754792086205e-06
2.7341357641060840308e-06
2.8362869659752342396e-06
2.9691800210866719442e-06
3.1120849158356380712e-06
3.2412139537175903153e-06
3.3409156914996206047e-06
3.4048615739879242242e-06
3.4374895765440302061e-06
3.4534045443042997752e-06
3.4736841900484874673e-06
3.5198290935122039255e-06
3.6470649857989919112e-06
3.8352764687684639923e-06
3.9874850605125988827e-06
4.0884289949252052338e-06
4.1410343104102612365e-06
4.1604076228310925539e-06
4.171432389045644126e-06
4.1971997179086350618e-06
4.2807529235438283608e-06
4.5269491303507079983e-06
4.7950251687411128191e-06
4.9655534092092122901e-06
5.0424703098873180232e-06
5.0609030741363655699e-06
5.0634036002655617896e-06
5.0726866789451404354e-06
5.1016525194350776574e-06
5.1470260044670225301e-06
5.1978533149255669614e-06
5.249826601634110409e-06
5.2962012098255850629e-06
5.3306710315089440895e-06
5.3504524019966201085e-06
5.3587560162536016151e-06
5.363573866021419398e-06
5.3743947435730049159e-06
5.4054566444042354825e-06
5.5070612967575146578e-06
5.7604871059696615812e-06
6.0009143912165031163e-06
6.1683704512235740879e-06
6.2621639622497064561e-06
6.3007214284304594907e-06
6.3118995415915216498e-06
6.3213398173794562105e-06
6.3459725019313914797e-06
6.3966649422206175462e-06
6.465043649351900032e-06
6.5414213023794810751e-06
6.6125024033937366351e-06
6.6666739620710697094e-06
6.6984935657312551482e-06
6.7106040786558749089e-06
6.7118799230639850518e-06
6.7136683271974965015e-06
6.7274876030924184858e-06
6.7930550962105206957e-06
7.0041959750041412594e-06
7.2275527265337382099e-06
7.3721592104213840276e-06
7.4487193481332423346e-06
7.4787157176189602371e-06
7.4862959159178697958e-06
7.4910717978159030279e-06
7.5060743812657889225e-06
7.5511200374443790577e-06
7.6444676294864065814e-06
7.7511830126943114265e-06
7.8550833779563202349e-06
7.9386253739940966403e-06
7.9883982826452543986e-06
8.0037151706359937293e-06
7.9993475768492644631e-06
7.9866486111952243146e-06
7.9757653500075138467e-06
7.9775269213270987077e-06
8.0249791362390487389e-06
8.2032262656731433961e-06
8.3923778925518658495e-06
8.5102004495824220767e-06
8.5766275601427565978e-06
8.6106584092520598505e-06
8.6252874930729452892e-06
8.6299820322235044678e-06
8.6345672168559758864e-06
8.6494296280190057733e-06
8.6982861190384183972e-06
8.8543780692746108839e-06
9.0488267069506011212e-06
9.1780810198543463595e-06
9.2355355680498514722e-06
9.2430744478782798007e-06
9.2315715866114518036e-06
9.1933745457251502296e-06
9.1593883004492470485e-06
9.149689902759029444e-06
9.1572604372171334351e-06
9.2284810868466416481e-06
9.3933850532527254305e-06
9.5181911750613188859e-06
9.5925721858474705123e-06
9.6259827786156394605e-06
9.6380423785694984475e-06
9.6528787688039321003e-06
9.6949961927158217036e-06
9.7919320068427482959e-06
9.8932570255220984731e-06
9.9724811759078565044e-06
1.001835478273699337e-05
1.0033577366595065433e-05
1.0030298168746848057e-05
1.0018945909351866276e-05
9.9843351101046872879e-06
9.9176902755729088543e-06
9.8738984100573792585e-06
9.8558067310307546032e-06
9.8524251798380398548e-06
9.8837279242702958261e-06
1.004752712375867319e-05
1.0374455763202427414e-05
1.0604242016302932011e-05
1.0724196113239577703e-05
1.0769261059350777356e-05
1.0794556288895392382e-05
1.0850202731569653117e-05
1.1001357456568258385e-05
1.1207859732502243867e-05
1.1376974536063366153e-05
1.1475587145404677757e-05
1.1504008539352847718e-05
1.1494048968573620189e-05
1.1441185564298928491e-05
1.1303434700607898757e-05
1.1223223938463868044e-05
1.1206836707939799429e-05
1.122939966001972109e-05
1.1388359945384508021e-05
1.1663503773660868908e-05
1.1822247229636287106e-05
1.1893120224600424589e-05
1.1928387793952359043e-05
1.1962777086149107596e-05
1.2001633035959158172e-05
1.2029599875845377484e-05
1.2035927553603924044e-05
1.202588869288923931e-05
1.1988814924941526061e-05
1.1851917661500487613e-05
1.1650918459056100536e-05
1.1520906463949127029e-05
1.1455211272106152973e-05
1.1429677237183406702e-05
1.1420331831480662937e-05
1.1415788273121889901e-05
1.142372710057184808e-05
1.1441923419386252128e-05
1.1454444917226096982e-05
1.1460767687753180659e-05
1.1460777312984370336e-05
1.145487713414759768e-05
1.1446266782624071843e-05
1.1431861382151239923e-05
1.1396850452159567812e-05
1.1585624296513976757e-05
1.1603854996034475717e-05
1.1624915233863854133e-05
1.1647142021304283577e-05
1.1669020333069661221e-05
1.1689142426979584266e-05
1.170672626672923212e-05
1.1721303387023924885e-05
1.1732882957661601176e-05
1.1741406017403933974e-05
1.1747185581186112672e-05
1.175095641776034209e-05
1.1754028393541439139e-05
1.1757795328705144229e-05
1.1763725327922472022e-05
1.1772812835460501574e-05
1.1785296572851348059e-05
1.1800470920951001478e-05
1.1817229857849399037e-05
1.183414506739495793e-05
1.1849852870157023143e-05
1.1863304612295358471e-05
1.1873802270354504157e-05
1.1881007269712025475e-05
1.1885272203454250655e-05
1.1887174857163531613e-05
1.1887644499306818276e-05
1.1887601533383674441e-05
1.188816749625348879e-05
1.1890247311409860912e-05
1.189437169728291422e-05
1.1900920541341857977e-05
1.1909927619560709149e-05
1.1921188403972458053e-05
1.193441538905512094e-05
1.1949015354106585409e-05
1.1964315906106957232e-05
1.1979575588923259562e-05
1.1994272075040376483e-05
1.2007612666422921879e-05
1.201888478272594566e-05
1.2027932581028888897e-05
1.2034427854743376399e-05
1.203837097398934662e-05
1.2040224495277358356e-05
1.2039963747886573949e-05
1.2037809610088822515e-05
1.2033857581287507824e-05
1.2028347842479569096e-05
1.2021630745951857779e-05
1.2014156402849586884e-05
1.2006066325935471495e-05
1.1997532539963839945e-05
1.1988715480780056698e-05
1.197997399928208811e-05
1.1971302815135711402e-05
1.1962433221743846691e-05