/*--------------------------------*- C++ -*----------------------------------*\
  =========                 |
  \\      /  F ield         | OpenFOAM: The Open Source CFD Toolbox
   \\    /   O peration     | Website:  https://openfoam.org
    \\  /    A nd           | Version:  12
     \\/     M anipulation  |
\*---------------------------------------------------------------------------*/
FoamFile
{
    format      ascii;
    class       volScalarField;
    location    "0.0073";
    object      rho;
}
// * * * * * * * * * * * * * * * * * * * * * * * * * * * * * * * * * * * * * //

dimensions      [1 -3 0 0 0 0 0];

internalField   nonuniform List<scalar> 
75962
(
1.1555293961243557899
1.1529852568714260563
1.1526418631262738135
1.1544461381802466615
1.1558863311275073826
1.1548030420415493769
1.1532402576905957936
1.1531953210081615779
1.1540192633949291068
1.1543207038777325568
1.1542332247518565236
1.1542780418990310487
1.1543561072918318011
1.1545809911770394951
1.1547200332300016079
1.1541722016470805645
1.1532809052890113932
1.1528755958452894248
1.1533645654430837446
1.1544416453788908239
1.1548796894579183014
1.1541257777969258225
1.1528302191259036658
1.1518924764721494292
1.1515862825292721983
1.1517359510146882862
1.1521249361324987781
1.1525694702884956566
1.1527177872991463126
1.1523334717825968188
1.1516453458806716892
1.1509598485082628283
1.1504025136513342797
1.1501368728709453482
1.150347695159757766
1.150937622001269478
1.1515600144692295093
1.151893281197209129
1.1518341486152738895
1.1515313188326361526
1.1511466665689813471
1.150716912509853973
1.15028158666648328
1.1499580060815981497
1.1498438543464277739
1.1498459678418329055
1.1498115453833044342
1.1497276881348723609
1.1496416303600074382
1.1495622667940772477
1.1495575664561523688
1.1497765006014730726
1.1501925395590426593
1.1506305620099066545
1.1509532887607818452
1.1511385920261885119
1.1511737704107787295
1.1511073900464616759
1.1510242985594709708
1.1509380831529345546
1.1507660064772484709
1.1505146962975705272
1.1503288077759370456
1.1502949381739118184
1.150272743989463331
1.1500912427884175671
1.1497903567283724868
1.1495854759738963757
1.1495733701085690814
1.149614778919457736
1.1496247326931723354
1.1497076019534062663
1.1499692845400704133
1.1503293985593801008
1.1505800578624989505
1.1506026066990262535
1.150477897351552814
1.1503694411666505193
1.1503828045184825157
1.1504920380835439442
1.1506148920954748505
1.1506103729207728392
1.1503712899368789824
1.1499354249477675705
1.1494912361680942325
1.1492328122031612025
1.1491614823497493525
1.1490960569332848706
1.1489268058100581271
1.1487252045748967966
1.1486638794005790132
1.1488067583522898474
1.1490985740767010181
1.1494064461545066003
1.1495794364802314202
1.1495442830449786875
1.1493454478029043742
1.1491324101606021912
1.1490598896680555008
1.149167642640198661
1.1493830083020373234
1.1495570715851510801
1.1495772865240079241
1.149418295485844066
1.1491377077148121622
1.1488572749992809197
1.1487014936995583181
1.1487351293727938728
1.1489430175352663976
1.1492502118987169002
1.1495813069457547773
1.1498790815987536273
1.1500978025666777071
1.1502263104831691454
1.1503044597486304923
1.150430086082760095
1.1506830977962669849
1.1510389358466424081
1.1513596288501839471
1.1514822336380805545
1.1513594069142205623
1.151094431421631592
1.1508432638568730777
1.1506946540379348054
1.1506207974279070161
1.1505426098473952035
1.1503940746467420375
1.1501730938178180708
1.1499322033216434757
1.1497447253944375056
1.1496834596518226146
1.1497781610276505138
1.1500015100399778589
1.150281605428888021
1.1505454680831808112
1.1507532301944189967
1.1508976545998959029
1.1510130185943705516
1.151118024702405318
1.1511978346323739064
1.1511861722206486736
1.1510247936746067499
1.1507220284478727468
1.150365004282359882
1.150083318407871813
1.1499545556087282794
1.1499673831236059129
1.1500461532923018648
1.1501326955830946108
1.1502094250859062896
1.1503208388981247534
1.150504368774872388
1.1507494346670219532
1.1509973384936549312
1.1511625675692522819
1.1511844452349497825
1.1510695568477964379
1.1508660067102518543
1.1506200190634303659
1.1503544049077776279
1.1500719696599202013
1.1497784845093905748
1.1495062255808377039
1.1493038615561894655
1.1492175555027464018
1.1492847323944272997
1.1495317752124685207
1.1499515020752557604
1.150498745125073663
1.151086373107970795
1.1515984115310176072
1.1519173012290069291
1.1519824260745861189
1.1518067535110250166
1.151465046581761964
1.1510543849228935809
1.1506612502234541129
1.1503500418219083645
1.1501597661534588291
1.150116706004449707
1.1502290294979606866
1.1504694554316547972
1.1507733122819241434
1.1510536141730438597
1.151228871281968269
1.1512442491098697772
1.1510800023606957421
1.150748083779194797
1.1563029046911985631
1.156408008718183833
1.1565139017029979485
1.1566288250858158815
1.1567590740906839031
1.1568944772369864626
1.157004823576221586
1.1570589193193485666
1.1570415986603963532
1.1569640429074974364
1.1568566118931438158
1.1567599102004162415
1.1567039438055854994
1.1567084071567852455
1.1567739461861306083
1.1568845195889791988
1.1570177337472962176
1.1571501083567148349
1.1572637789235418193
1.1573538778629766099
1.1574318365901379302
1.1575184774562115031
1.1576315453412544532
1.1577765636696217832
1.1579431671772146828
1.1581097629128989102
1.1582548078204779607
1.1583653060643641641
1.1584396135092374092
1.1584828433466769493
1.1584993182785061627
1.1584901709377934953
1.158456962861982964
1.1584101361929795004
1.1583730479205200936
1.1583741674441181413
1.1584322881862734178
1.158545057831548597
1.158685935220513219
1.1588143267391708413
1.1588944638397054021
1.1589136727426276874
1.1588880677384549855
1.1588532939804445654
1.1588465716106182146
1.1588911479351549083
1.1589877737240132927
1.1591183545804613075
1.1592564726503546968
1.1593784085257825556
1.1594705335556931836
1.1595338657977602992
1.1595834947871506149
1.1596428239419955819
1.1597337292353984139
1.159865700083419604
1.1600264060057190463
1.1601842428413491337
1.1603029985543860114
1.1603584746766575364
1.1603499373397845318
1.1602982779873534103
1.1602318803373981027
1.1601715770123952609
1.1601197070654383214
1.1600633870780936441
1.1599852151189553595
1.1598790686861411015
1.1597561346761213752
1.1596409201566235669
1.1595578265765782433
1.1595143824660216758
1.1595002380120975616
1.1594923057152759505
1.1594699400446353277
1.1594266381819271494
1.1593698147654800668
1.159312718274180698
1.159261920866894835
1.1592088450100197505
1.1591331487938592026
1.1590147741079834809
1.158845603607382424
1.1586364388905421308
1.158415356283154507
1.1582181920779710538
1.1580763229310548912
1.1580061599537929684
1.1580035462296860427
1.1580464823106475514
1.1581047500227954483
1.1581520643114306957
1.1581752799950928434
1.1581772146535900259
1.1581730291486380668
1.158181496636764285
1.1582168594102504322
1.1582829397729668131
1.1583729586394087008
1.1584743439933633535
1.1585743603968645665
1.1586644848745983882
1.158741655852756347
1.1588066917434911574
1.1588603922013400727
1.1589005051211489494
1.1589214869351160964
1.158916754653033232
1.1588819611759553219
1.1588172379395476064
1.1587271930210818471
1.1586205389567636459
1.1585078541663260676
1.1583994631043454948
1.1583040695746951165
1.158228600389871854
1.1581781901799261814
1.1581553669987452171
1.1581581133606082545
1.15817834137475284
1.1582031328194990483
1.1582176528418710593
1.1582098098909010542
1.1581740170059164896
1.1581134965297152917
1.158039410828890281
1.1579666753446287153
1.157910115981796606
1.1578809936619141041
1.1578848778684240894
1.1579215197401979687
1.1579851512971715
1.1580647301224831214
1.1581454993961364242
1.1582116454767414915
1.158250205756918616
1.1582550785804199833
1.1582289467353164003
1.1581829377546442039
1.1581328355155302567
1.1580940367533736346
1.1580764782684600522
1.1580820445151511766
1.1581049327065700005
1.1581341713665807003
1.1581579816360920709
1.1581665474450648645
1.1581547740235804689
1.1581222269836999317
1.1580723456093982016
1.1580109466128332141
1.1579439192651515
1.1578766186750388822
1.1578129368911858066
1.157755352386129255
1.1577060183635847768
1.1576669995482604669
1.1576397959591826492
1.1576251309946106183
1.1576212583366776165
1.157623712678401473
1.1576252388349814737
1.157615800708410303
1.1575846700019487567
1.1575230231022581862
1.1574267269641849154
1.1572985467555194639
1.1571495445557100634
1.1569978826674112149
1.1568652327012824976
1.1567723677344889932
1.1567344737151095124
1.1567570075125708229
1.1568341166437854373
1.156949184316600876
1.1570783657635335118
1.1571956620959298334
1.1572776415127539185
1.1573074040812738605
1.1572772350843556488
1.1571893126244972017
1.1570544362393966331
1.1568889245872882032
1.1567109860711450864
1.1565380234299238449
1.1563847037232926063
1.156261399905593068
1.1561734507896817004
1.1561208295928928624
1.1560987891000966687
1.1560992328649002392
1.1561120632359869198
1.1561270772844807198
1.1561359004518005911
1.1561341620505083405
1.1561223259740529556
1.1561049632224063011
1.1560889173425910048
1.1560815867828475589
1.1560895652058016392
1.1561173882454671702
1.1561663125257737317
1.1562336052562180999
1.1563130379353776522
1.1563965590846490006
1.1564763707880694188
1.1565463970324223464
1.1566026378336569103
1.1566429567363294417
1.156666597888379
1.1566745733253063211
1.1566696776198541752
1.156655927029835107
1.1566378745918355353
1.1566204671169446616
1.1566085511044199574
1.1566059346844048683
1.1566146112775317345
1.1566344330489861658
1.156663362449527277
1.1566978521077719844
1.1567337151826877495
1.1567672864293938595
1.1567964456666364192
1.1568211860701027582
1.1568432917873527899
1.1568654518705858703
1.1568900098971957036
1.1569178620545315095
1.1569480232585447332
1.1569777345949212588
1.157003393620993803
1.1570217911162903324
1.1570310210914696025
1.1570308832607278937
1.1570225222864765069
1.1570075892556650476
1.1569874761857983358
1.1569632517160957086
1.1569360701422066739
1.1569073965518923419
1.156878909529110766
1.1568525751962890347
1.1568308839308041325
1.1568172053525564991
1.1568158335794631597
1.1568317041122098132
1.156869664379311935
1.1569335684044574908
1.1570253978095117464
1.1571439655328481511
1.1572837588827789013
1.1574345439503863631
1.1575816677097909846
1.1544209472285769102
1.1545288319332969174
1.1554303957189979712
1.1559439200065706466
1.1562539564697518202
1.1552734589503665941
1.1534688886104587091
1.1525957580530481472
1.1531742906989352893
1.1535743417749597661
1.1532612750586368477
1.1533637341653106834
1.154029078154393817
1.1546085591101695744
1.1545925332887541082
1.1537169602319499173
1.1525023748885059316
1.1519604287995202085
1.1524011190446481478
1.1534107076561563865
1.1541079280572263954
1.1538889397192022557
1.1529012845042321267
1.1518122846894200961
1.1510983437018700304
1.150893908562885759
1.151195053638458532
1.1517962276818414225
1.1523031878407383743
1.1523872348932373555
1.1520064927967623714
1.1513576363443542849
1.1507614641728527438
1.1505198508140519476
1.1506981161660321256
1.1511184105738065941
1.1514814521692113836
1.1515463866690915928
1.1512883252890397934
1.1508753775207243297
1.150499435865195208
1.1501714143388266365
1.1498614229299479739
1.1496431227826053867
1.1496573876685121096
1.1498910455581539125
1.1501346211459413382
1.1501984374459999216
1.1500142002837494548
1.1497102960713310171
1.1495667528885240571
1.1497960025813329654
1.1502627277750010482
1.1506737903907020559
1.150934022132965584
1.1511143091886206768
1.1512250922100506489
1.1511835979542353048
1.1510128378718644804
1.150787713465398765
1.15057125489193246
1.1504181735325345048
1.1503855309668944429
1.15044417710139113
1.1504250317580364538
1.150222740263291854
1.1499232914927017823
1.1496949286595758988
1.1496064736410331886
1.1495476559799551186
1.149488556601108824
1.1495232893753539738
1.1497451147744317534
1.1500986194618556535
1.1504091280027983757
1.1505475527554120951
1.1505241353445487817
1.1504308678310652958
1.1503503090000928299
1.1503291789100114073
1.1503709429880464299
1.1503973066933166347
1.1502799898870748052
1.1500048192830443217
1.149711747702623299
1.1495454072838753312
1.1494658524413672307
1.1492992068369307646
1.1489865582504055208
1.1486846613152494889
1.1485953659483314482
1.1487846612391265921
1.1491642586751986688
1.1495554279675082032
1.1497635523624696319
1.1496677831189068275
1.1493216555425851411
1.1489686589715635279
1.1488478193899078761
1.1490497959533363392
1.1494332125381123699
1.1497493592346617053
1.1498253247210299399
1.1496276692507831907
1.1492551142894766869
1.1488905198988808021
1.1486994071278924245
1.1487618624209015028
1.1490401971701811323
1.1494222304627312869
1.1497700379173645402
1.1499863881760612472
1.1500471801067286837
1.1499994896970358038
1.149953556117250697
1.1500407443780478189
1.1503433247076981782
1.1508274397856541604
1.151322319328234034
1.1516084720759538484
1.1515763140735806314
1.1512861426420377686
1.1509099166438128137
1.1506030370810840235
1.1504175726400964752
1.1503129364422115533
1.1502110321143410587
1.1500652481534916483
1.1498928694992684996
1.1497532821286751137
1.149720548831097755
1.149825568920700869
1.1500419930896295106
1.1503072279813222334
1.1505665646237215327
1.1507817005367468877
1.1509443630711984063
1.1510567352548082276
1.1511243871300764763
1.1511345961298304896
1.1510578487349540922
1.1508726985367336848
1.150610103303534526
1.1503608448330890912
1.1502236948011763662
1.1502339703299995222
1.1503279707848241831
1.15039730459408851
1.15038209975610628
1.1503072969448584484
1.1502725784732299452
1.1503634339942170328
1.1505853316467378189
1.1508550760510085631
1.1510509501873040783
1.1511050854115738584
1.1510308674617297786
1.1508894790586026158
1.1507294419036286914
1.1505516822081518491
1.1503303249048602019
1.1500502588487384603
1.1497337866722328048
1.1494381665236503842
1.1492354119896193154
1.1491973874247443099
1.1493748914019972229
1.1497733637646081473
1.1503315673589684653
1.1509319923221010828
1.1514328376616387306
1.1517210139560665194
1.1517583598644309806
1.1515837331914235975
1.1512842308519912748
1.1509516462360467326
1.1506527392747747385
1.1504265070964354578
1.1502947501186593371
1.1502739474206205017
1.1503726098015933932
1.1505719770379028155
1.1508172315851952217
1.1510370876792801464
1.1511582819832941738
1.1511317247187671242
1.1509391487461269055
1.1505865548754738992
1.1501013294915534146
1.1561819538742559299
1.156264026339953066
1.1563644239508619194
1.1564770754138318232
1.1566136698444093867
1.156781258245009214
1.156965186116243105
1.1571243363513286084
1.1572173633256366276
1.1572233039579669089
1.1571566085016591341
1.1570586796908364224
1.1569786711056300188
1.1569543417152901021
1.1569937149573028545
1.1570854144474369551
1.1571976535704058264
1.157300043736243067
1.1573741231771879079
1.1574184230933468598
1.1574454647998653201
1.1574761833713500536
1.1575321448704416483
1.1576269679200750229
1.1577603634217292772
1.1579193889311920618
1.158085555006313383
1.1582417068528205739
1.1583772726507255424
1.1584870050255231533
1.1585658772700189179
1.1586069234985780785
1.1586037762253955652
1.1585580045241825609
1.1584867263690068473
1.1584214830594177226
1.1583964463148448409
1.1584334019234647783
1.158530574055743001
1.1586610280226381509
1.1587854850083789682
1.1588709935563985542
1.158907584185610018
1.1589124262553991418
1.1589194396588804459
1.1589616699710860726
1.1590543402499138281
1.1591904916846491602
1.1593468859679745275
1.1594948648299610028
1.1596117734863771176
1.159689169618066229
1.1597343754887157186
1.1597681610422556631
1.1598160823466809877
1.1599000535244796684
1.1600280222078898085
1.1601869292886182183
1.1603471581228732568
1.1604755178477892397
1.1605489835754374539
1.1605625951249569638
1.1605268873022722698
1.160459309299020525
1.1603757855777903085
1.1602829837313359818
1.1601800153621459888
1.1600647282472700272
1.1599430313578384943
1.1598297642877979374
1.1597434663617369743
1.1596937650305199075
1.1596750511761377833
1.1596680178462834832
1.1596502733381568451
1.1596102842239379704
1.1595514937034339109
1.1594872895006798075
1.15942979937045898
1.1593782695106329417
1.1593161669157143745
1.1592198503265791487
1.1590725726280914909
1.1588754676105925689
1.1586502039680208753
1.158432020237592841
1.1582579656570144433
1.1581539121673354309
1.1581256034263933685
1.1581566704849479699
1.1582153095907012919
1.1582668372747373375
1.1582866796217548
1.1582690306514145107
1.158226945159871013
1.1581850493483571984
1.1581681865715889312
1.1581911821431374321
1.1582547779953469291
1.158347492670582124
1.1584520356221033044
1.1585535842862519917
1.1586449744792421956
1.1587265897287559735
1.1588025870625746627
1.1588746490250634302
1.1589380344775577214
1.1589818844361534644
1.158993821392053869
1.1589653854065438132
1.1588958369194950482
1.1587920427473101803
1.1586663366318035173
1.1585326111881077971
1.1584033882696338491
1.1582885029133169752
1.1581948046123098361
1.1581269545931747178
1.1580872519739713322
1.1580747611349022641
1.1580835666154933872
1.1581033565514911032
1.1581212729250800475
1.1581258622172825312
1.1581103107431360844
1.1580741248256520848
1.1580232308596178914
1.1579680890833414786
1.1579204478313591675
1.1578904164520169573
1.1578841169752234208
1.1579024257807761789
1.1579417731302918959
1.1579945261207831297
1.1580496989284672082
1.1580950374502376743
1.1581197054605687491
1.1581180809451332436
1.1580924929668494627
1.158052755614056295
1.1580126289143459761
1.1579853550623135927
1.1579791103264565066
1.1579950474721465437
1.1580275978708316487
1.1580663189766564614
1.1580994772464650033
1.1581167542036219231
1.1581111213408703531
1.1580794528061890691
1.1580226193156593073
1.1579444560164997569
1.1578502200052280813
1.1577457468731489065
1.1576372925836824201
1.1575318312084077466
1.1574373180077768275
1.157362083820394405
1.1573124587859571211
1.1572902799679911645
1.1572911550164410865
1.1573046128785000608
1.1573163531263743753
1.1573113365837703892
1.157276960570869484
1.1572063407263797341
1.1571008616338505082
1.1569705869742272775
1.156831841829562002
1.1567035500956417415
1.1566032948336621988
1.1565439711315899096
1.1565322099196138073
1.1565670576865909602
1.1566395886421076966
1.1567349255613375014
1.1568346708757477614
1.1569203009960875583
1.1569759503053800298
1.1569904076191284137
1.1569588440847355937
1.15688325786762225
1.1567720917622326127
1.1566381078757232981
1.1564952538402464288
1.1563564878740613118
1.1562320081166581609
1.1561282578769325191
1.1560481659592292125
1.1559916279745405809
1.1559559463863942064
1.1559365226465032617
1.1559279799760484586
1.1559254146606185998
1.1559254630585360513
1.1559269806842704664
1.1559309167167968191
1.1559399905124749797
1.1559579197698990338
1.1559883744959320584
1.1560339573243925138
1.1560957470673969283
1.1561726575417603513
1.156260930240819329
1.1563542147724250597
1.1564445409002246379
1.1565240678109722783
1.1565867737544806015
1.1566291102373591482
1.156649639534955476
1.1566487631428969962
1.1566287987836081363
1.1565945415330631807
1.1565528024736750901
1.1565114367963009734
1.156478298525188908
1.1564602745857686106
1.1564615604096675217
1.1564823960420032023
1.1565191936584908738
1.15656581482239873
1.1566152676202581251
1.1566612553057535884
1.1566993486161851745
1.1567282270145931022
1.1567500360970783824
1.1567692215869331829
1.1567905357845045256
1.1568170850706538388
1.1568488359410260546
1.1568827376326922263
1.1569138179726465854
1.1569366171534452015
1.1569468275796512824
1.1569427149599060822
1.1569258043881247566
1.1569005039110580313
1.1568725054316835177
1.1568467132548270193
1.1568259887085063919
1.156811072154832587
1.156801178306382738
1.1567948718121023877
1.1567909565530878346
1.1567894755418026698
1.1567924392465378514
1.1568041413395060424
1.1568308290564006668
1.1568794660986492229
1.1569555698687272738
1.1570611883162060796
1.1571935737276721756
1.1573445516209266426
1.1575009151361106419
1.1576460288330254755
1.1540003113565606707
1.1552766993918710536
1.1557238165076861858
1.15536470751669329
1.1551353482320136923
1.1549617797946380993
1.1541342089548292105
1.1533682809556033977
1.1533863350201014608
1.153384401437658191
1.1533346395586294708
1.1539078221076295439
1.1544746204257172462
1.1544760509552538519
1.1541748446141919526
1.1534077896555749998
1.1525019175452346776
1.152192923224389931
1.1523830749032042409
1.1526515696029226987
1.1530879965414397859
1.1533805622441084537
1.1529316797093298597
1.151905374454984754
1.1510336122565212325
1.1507531354089937103
1.1510166998465152233
1.1515752347998986505
1.1521069552423146565
1.1523458616115493935
1.1521115514791226975
1.151508014357780274
1.1509396372978144552
1.1507280526864382963
1.150886592928725527
1.1511788689445663358
1.1512904312937823903
1.1510902837882452943
1.1507257160729313927
1.1503946551133581444
1.1502202594454462581
1.1500356920224266144
1.1498048869374368763
1.1496956324235780844
1.149878573373340096
1.1503089018086476436
1.1506506456662428661
1.1505693464589368258
1.1500692754795220907
1.1495096271285598633
1.1493550371271032962
1.1497093048313580255
1.1502387538535707723
1.1505958007218712869
1.1507750993252072735
1.1509428697573218514
1.1510861348854422026
1.1510283003101964283
1.1507330139311284789
1.1503966484567389461
1.1502369366781974858
1.1502991954869334901
1.1504809855734312585
1.1506364574836673853
1.15063736872761746
1.1504353246971132929
1.1501102883020319911
1.1497747929272139622
1.1495546229086319734
1.1494488969608525064
1.1494653834238115486
1.1495888548745596403
1.1498305440934561972
1.1501469195079256913
1.1504150568330839821
1.1505182537743587901
1.150426038509137161
1.150191431164596878
1.1499553422273194325
1.1498725297184260175
1.1499980609379731877
1.1502070605445393614
1.1502712834100135009
1.1501110755152643694
1.1498601210981420628
1.1496779587325880456
1.1495453955941972168
1.1493357179221113107
1.149025945153617112
1.1487846849446223807
1.1487866789163256875
1.1490560615116465204
1.1494693986333186508
1.149806375763011701
1.1498644594297853239
1.1495721084403005552
1.1490722304153151434
1.1486871982193138653
1.1487026742574721894
1.1491307122156295684
1.1496903619535083774
1.1500542805871989405
1.1500380680511479436
1.1496884951389800822
1.1492024573034356205
1.1488137953203210184
1.1486800464618902584
1.1488289974447347674
1.149171733148678598
1.149553516173601686
1.1498184446869132991
1.1498890898294507057
1.1497934494282049389
1.1496354498980185799
1.1495552491957938823
1.1496798946224022764
1.1500637574212786429
1.1506318355459970171
1.1512033347748413803
1.1515621332728984694
1.1515762850420097063
1.1512883718921462783
1.150862438482502581
1.1504771055718847617
1.150238541022414962
1.1501368217253136184
1.1500987941120595082
1.1500508419579906771
1.1499682734850229515
1.1498930948624259685
1.149885182529982286
1.1499798837780199623
1.1501569616921092365
1.1503716976023259377
1.1505810049772924319
1.1507643118243136016
1.1509040923005655621
1.150989425297554547
1.1510050404325808948
1.1509420814692945534
1.1508047209655412058
1.1506151052262219014
1.1504317397588186278
1.1503330277095058509
1.1503630871031511607
1.1504968719751158535
1.1506347435842585458
1.1506627680848708906
1.1505328019770939552
1.1503229333938658208
1.1501710597043190987
1.1501897857533216474
1.1503831366474399633
1.1506514340501228233
1.1508635870434289483
1.1509502006235321492
1.150933319347786199
1.1508743024906513686
1.1508066751387087123
1.1507025685364895562
1.1505150124173451065
1.1502249337314491839
1.1498669377945125447
1.1495137123350414043
1.1492542582920031169
1.1491664918794337602
1.1493075148407958519
1.1496794951862649992
1.1502145894390756187
1.1507886834911156271
1.1512551431883257802
1.1515057976617033564
1.1515149792030616727
1.1513399338091974133
1.1510810522564332015
1.1508336136719634624
1.1506485391539478247
1.1505359785788300542
1.150487418738476153
1.1504944726736663352
1.1505595822403946737
1.150677206072599823
1.1508233688709816889
1.1509520373356674217
1.1510032021376579436
1.1509323862897282709
1.1507169714369187563
1.150359114729779364
1.1498901146844437982
1.1563746404399097845
1.1564690481510462305
1.1565635746553146745
1.1566525307674677681
1.1567549947486075457
1.1568909835421610222
1.157057906594292751
1.1572217324675597716
1.1573384959321444398
1.1573774830400593849
1.1573458182988733967
1.1572829136548439255
1.1572401763000095265
1.1572566594681445995
1.15733908406039121
1.1574583038209413921
1.1575693488081815197
1.1576372022028551534
1.1576417513932075742
1.1575974746575612429
1.1575404069203483193
1.1575040895926271833
1.157512176407283766
1.1575735396114350539
1.157681706495433227
1.1578225642044561727
1.157983283348146708
1.1581560701741051567
1.1583330381493985861
1.1584996228525683559
1.1586348729917708145
1.1587163421930146701
1.1587282310288475884
1.1586735062885975545
1.1585783191278840043
1.1584837406795325254
1.1584299743542454397
1.1584407699064516173
1.1585118372547646981
1.15861528932206026
1.1587162480877217785
1.1587910423176872587
1.1588383789474832053
1.15887813319053401
1.1589395328054601375
1.1590458184833252187
1.1592009061324048957
1.1593868668219864393
1.1595722094504989919
1.1597258656810200961
1.159829612701688939
1.1598834455830402401
1.1599043088173242033
1.1599190233629321778
1.1599555103641241427
1.1600338572092270262
1.1601581679028920568
1.16031425216114914
1.1604750265698280387
1.1606097190788697837
1.1606947223313548445
1.1607199075614220707
1.1606887320425718357
1.1606126028475820533
1.1605038425937170832
1.1603727490160511415
1.160228416808048113
1.160082816241941206
1.1599525818643632302
1.1598551098316716157
1.1597996073469267753
1.1597810305202462811
1.1597811192392781798
1.1597749027027979274
1.1597435646063229964
1.1596838518855754341
1.159608048914907874
1.1595330754409383101
1.1594682775215243709
1.1594081013584678352
1.1593335150335670747
1.1592224738705183551
1.1590626176819118776
1.1588614156794967425
1.158645729049862183
1.1584530388778968568
1.1583175134593384215
1.1582564169077933514
1.1582636315589687204
1.1583133565383278984
1.1583701160033375022
1.1584018029193363652
1.1583910525112572909
1.1583404344356593718
1.1582699960092657232
1.1582076261407232565
1.1581771319438238788
1.1581894292925589696
1.1582407752975651949
1.1583171051972216414
1.1584013975404188201
1.1584824564291134052
1.158558554211940983
1.1586352414570497693
1.1587192794159129061
1.1588117707736973472
1.1589041338166397033
1.1589792579020448127
1.1590182047671861998
1.1590079290340327134
1.1589458022068785947
1.1588399222323313431
1.1587052532289323636
1.158558470081874292
1.1584141626737987085
1.1582831450376760429
1.1581735112359083928
1.1580910965661870282
1.1580395622356172147
1.1580187290170209646
1.1580233574132927643
1.1580428043402020144
1.1580638204375228728
1.1580743137470295157
1.1580669835759289654
1.1580409052040214757
1.1580012669845909379
1.1579578151700689048
1.1579211175430159653
1.1578991161850249458
1.157895196137058047
1.1579078078500610882
1.1579321576816130612
1.1579614813589338418
1.1579883246098252592
1.1580058645339783574
1.15800906780985291
1.1579965258922984006
1.1579710923038970538
1.1579393162630944314
1.1579097450256869983
1.157890277219634223
1.1578863409267654561
1.1578991094444797127
1.1579254026556280444
1.1579582185525572058
1.157988949532732903
1.1580084239586647676
1.1580081606895977764
1.1579818728210544698
1.1579259605519660603
1.1578397066019048278
1.1577253734000048091
1.1575890505276262843
1.1574402548199684837
1.1572910603137784857
1.1571552920322660807
1.157046308012470659
1.1569733653190841238
1.1569383164883624282
1.1569341251442191165
1.1569463893174152247
1.1569574184709257025
1.1569505300263369652
1.156914872926003035
1.1568483873879118473
1.1567576454149766096
1.1566554341291293007
1.156557161924033128
1.1564765705919139993
1.1564226884532315953
1.1563991267044124722
1.1564044247880811422
1.1564329167163032164
1.1564766659655081327
1.1565270786195365194
1.156575379572667428
1.1566131325563613341
1.156632979485795909
1.1566295447025485288
1.1566002734115030659
1.1565458321446355772
1.1564706700329365763
1.1563822507097243353
1.1562889329010750394
1.1561977445876010506
1.1561131400266340119
1.1560371289218371871
1.1559698789767978155
1.1559107098938981029
1.1558589743633282954
1.155814748325640684
1.1557794236462950455
1.155755469370737254
1.1557460378660691092
1.1557537983947798743
1.155780169335236085
1.1558251696152943566
1.1558875808087858417
1.1559650977337756483
1.1560542806252152026
1.1561507157624664188
1.1562496161039372833
1.156346309816318918
1.15643642432000604
1.1565158252576959175
1.1565807262719263182
1.1566278183182781003
1.1566547792106580683
1.1566603945128604014
1.1566445075044455848
1.1566082961255907957
1.1565552691751437298
1.1564921295400785173
1.156428600878479207
1.1563759039386523053
1.156344565525901702
1.1563416232932131056
1.1563683946255052248
1.1564199148494080926
1.1564867633722224483
1.1565577750897042542
1.1566228313636406355
1.1566748467220493435
1.1567112997546042941
1.1567345408945117757
1.1567505556121475685
1.1567661060399101469
1.1567859783436089671
1.1568110394872024305
1.156838205035083611
1.1568618890281507916
1.156876012045080282
1.1568760468535050911
1.1568605542044381185
1.1568318606074303734
1.1567957113909812517
1.1567598622634449601
1.1567316104663960541
1.1567152642924540817
1.1567112594577724227
1.1567170700692475105
1.1567290942933239339
1.1567440535986619476
1.1567604871050936044
1.1567797832181556661
1.1568064609551060862
1.1568471195152449926
1.156908793562157145
1.1569967309015067869
1.1571119418417130653
1.157249923584150908
1.1574007001778048309
1.1575499744869210961
1.1576812242751854942
1.1577788913570539187
1.1543857692782282243
1.155769789545261661
1.1548109562747597145
1.1547539026859778843
1.1563821217556398135
1.155732944354008751
1.1545338863385539163
1.1546408230257863003
1.1544424019291497086
1.1535518926492906999