/*--------------------------------*- C++ -*----------------------------------*\
  =========                 |
  \\      /  F ield         | OpenFOAM: The Open Source CFD Toolbox
   \\    /   O peration     | Website:  https://openfoam.org
    \\  /    A nd           | Version:  12
     \\/     M anipulation  |
\*---------------------------------------------------------------------------*/
FoamFile
{
    format      ascii;
    class       volScalarField;
    location    "0.0073";
    object      T;
}
// * * * * * * * * * * * * * * * * * * * * * * * * * * * * * * * * * * * * * //

dimensions      [0 0 0 1 0 0 0];

internalField   nonuniform List<scalar> 
75962
(
300.03018245615169235
299.85852467219041273
299.89519127111435637
300.06192606498723308
300.23121099288908908
300.21151024583457456
300.15820212864610994
300.21973043173585438
300.30778687868485122
300.29299074855157414
300.21643592672052137
300.15057960828818295
300.10345684850119596
300.12390562703740216
300.21849694016867716
300.29503431998870155
300.29502823405488243
300.21785163184637213
300.11215660875865296
300.05694054701251616
300.05456144818373332
300.09369559522343707
300.17238292050126347
300.25869040906076179
300.28920969679114705
300.23579361227626805
300.13579798114517416
300.05392647612563906
300.01754545816322661
300.02316742941633265
300.07222141318032982
300.1461925285488519
300.20438403753115608
300.22976604866988737
300.23591423340366191
300.22715729148575292
300.19033703126257251
300.1183484613610517
300.03021450442986406
299.96985774417663606
299.96766420161139877
300.01440959481470827
300.07731100578166661
300.12833939952133733
300.15891757703491294
300.17253941054559618
300.18673923378935342
300.22858056080599454
300.30507265966878094
300.38945322615091982
300.44762618663332887
300.46401304681285183
300.43175573743513951
300.35782278434993486
300.27155949522398259
300.21496513513767468
300.21473997226121355
300.27813903001725748
300.39076808700872334
300.51492632692315965
300.60230340646870673
300.6290667853074865
300.61077719304580569
300.58180350419922888
300.56696318573477811
300.58397505827446139
300.65052906090386386
300.77126050471497365
300.91291416458699359
301.01164839936376438
301.02684337113123547
300.97009960615645241
300.88488552438394663
300.8123026040041168
300.77628616022599317
300.7877417114251557
300.8477418825885934
300.9408880802940871
301.03744416362809488
301.10483050062964594
301.12807679253916149
301.11035329910134806
301.07365485248783443
301.05599236530338203
301.09732953539713662
301.21444092339197596
301.37865593077071935
301.52603296888946716
301.60111084999823561
301.58657082429868979
301.50599918442100034
301.40067115108865892
301.31530380109683165
301.28153147899342912
301.30387310673523871
301.36016561320366236
301.41313666912839153
301.43127008512300335
301.40401524358128427
301.34419865343772926
301.28509335276640968
301.26380660506356435
301.30541497199703826
301.40720760136321132
301.53576453356674847
301.6435531304849178
301.69235701229052893
301.67166727896466227
301.60322876643959944
301.52925226565957928
301.49246565360550676
301.51291564192769101
301.575516910368151
301.64008483013958539
301.66599963485765556
301.63841650142921935
301.57355987095780847
301.50418924879812721
301.45976966024500143
301.45497192614107007
301.49171908278287901
301.56253534470971545
301.65060912741466836
301.73216159630572974
301.783690261588049
301.79377258080148749
301.76635897816049692
301.71740298831946347
301.66492614865796895
301.6208833796270028
301.58994326288905086
301.57000180097958264
301.55609790882408561
301.54433150687435727
301.53518457077808534
301.53324037500806298
301.54326122987157532
301.56937260642911269
301.6096418474879215
301.65621219979840362
301.69572086275888978
301.71730038282430542
301.71963030174254072
301.71210466185164023
301.70994689508756892
301.72256882459117833
301.74785662695137489
301.77360252086384662
301.78647258256910391
301.77615003323029441
301.74064934239453351
301.68241043314554872
301.60688542555624281
301.52349329343161344
301.44582281332799312
301.39205190211748686
301.38249714687492542
301.43047178375144313
301.53408172282831856
301.67472275788628622
301.82270032946570382
301.94714963391413676
302.02541913388569128
302.04607064301910668
302.00797350619029658
301.91910193597004763
301.79543322581383791
301.65787649740525467
301.52983850107688113
301.432550231875382
301.38054127726047682
301.37870810063162708
301.42439507441469004
301.50803624593288532
301.61412499836308143
301.72219332999429753
301.81020209269337329
301.86014313457508251
301.86273198333873324
301.82087085888906586
301.74810774624160103
301.66309930902309588
301.58413479477934516
301.52546823586760638
301.49612733712882573
301.49982037339157159
301.53529149524962349
301.59675137271216272
299.51119607760011831
299.51854543360298067
299.52765879604487509
299.54001507710239594
299.55642917718085982
299.5755103179213279
299.5933716547041854
299.60576924939056198
299.61006739444326286
299.60654771810789043
299.59782274038019523
299.58802493930227229
299.58064414190954494
299.57845774826955676
299.58244669881986511
299.59182040664239821
299.6049448624685283
299.61978502430076787
299.63458221728973285
299.64865525819482173
299.66279961175177959
299.67862620359295533
299.69733360094016916
299.71884949009114507
299.74155748871157812
299.76288083360651626
299.78050836178761074
299.79325980172518484
299.8012916283369691
299.80552239846400653
299.80678385932736774
299.80554960366936257
299.80232263799683778
299.79853358334389668
299.79695404073743248
299.80083713910227061
299.8123271197584927
299.83123351035567339
299.85470796334288934
299.87831555331729305
299.89802892614545726
299.91215655921081407
299.92196668267428095
299.93075604839145853
299.94202021343380693
299.95787710568379225
299.97820125134637692
300.00100830803478402
300.02353360214920031
300.04334478014254728
300.05908541188046001
300.07094123769377347
300.08058223074812076
300.09056564577980453
300.10329264061795129
300.11985168381761468
300.13900799595069202
300.15746718352909284
300.17143848563796382
300.17841048687671446
300.17837063564184064
300.17360855561179278
300.16720501448827463
300.1614115861033838
300.15648837778098823
300.15105323679568983
300.14324362377311672
300.13240321786651066
300.11973392115663728
300.10785226772867418
300.09935676544989747
300.09503867413235412
300.09378197704126023
300.09312908040499224
300.09089939468429975
300.08643641024406179
300.08056664329848218
300.07472066332201166
300.06959208746002332
300.06423658352366601
300.0564439024932426
300.04403586717944563
300.0261243657651562
300.00385872117107056
299.98024666798778526
299.95913270165539188
299.94388716580942855
299.93627731523156399
299.93586804593491024
299.94031526107755781
299.94639410714887617
299.95129944233258357
299.95362821885152016
299.95367927881102332
299.95306238309638047
299.9537721972953932
299.95732644239109277
299.96414489716272556
299.97353307636387854
299.98418469614375681
299.99477075288655215
300.00439304218429015
300.01271313949513342
300.01978641143006143
300.02566154720625491
300.03007446812870285
300.0324302672443082
300.0320403115698582
300.02845834415126092
300.02170703139177022
300.01227101425723731
300.0010577992781009
299.98916712371146787
299.97767827441748523
299.96751069217106078
299.95940803254330831
299.95393262100316178
299.95137482164864196
299.95154389902984349
299.95360263186927341
299.95619615381741596
299.95775731333139902
299.95699713356128768
299.95330275819679855
299.94698307226110501
299.93918423234327975
299.93145773540032906
299.92536162189281868
299.92209766841614282
299.92228105698671925
299.92591689316816428
299.93241984074268203
299.94063648922696075
299.94901115151475324
299.95587461939885543
299.95986556742525408
299.960357755085397
299.95765898281695172
299.95296827403734596
299.94796371041695693
299.94425854749476912
299.94286433314107398
299.94391891426840857
299.94673837323620091
299.95009786866131662
299.95270636694601762
299.95350878715004228
299.95198046022710514
299.94811871170759332
299.94234790267614699
299.93534917882391255
299.92780230039369371
299.92031198073453879
299.91330745007087444
299.90705210312552254
299.90176773257439891
299.89766956487790139
299.89491879326840262
299.89359886355674689
299.89352856941007985
299.89422494778176542
299.89489223426994613
299.89442403512873625
299.89163284923273523
299.8855387116335578
299.87567645219473889
299.862334221915944
299.84669812962044944
299.83071529914889197
299.81670035854534717
299.80685915570762745
299.80279092614102865
299.80505338261008319
299.81300586423611776
299.82488030229347942
299.83816324790831231
299.85013526108491533
299.85836467876401912
299.86111524318920374
299.85761296071797233
299.84811133574334008
299.83375508316703417
299.81625645565065952
299.79751950928294946
299.77936234980512609
299.76331749582112707
299.75046910252740417
299.74137404462931045
299.73602693114992235
299.73392610997632346
299.73421328023238175
299.73581425610888118
299.73763825476635247
299.73878257914697087
299.73876688337111318
299.73762341330791514
299.73582216262099109
299.73408280788481761
299.73319620733781221
299.73387663965473848
299.73662608374951333
299.7416019353934189
299.74853964651845217
299.75680605765609243
299.7655754785733393
299.77404145078702413
299.78156481628059282
299.78770845906672093
299.7922154407235098
299.79496092143756414
299.79600089481499481
299.79558666175432791
299.79411884670844302
299.79208516790907879
299.79004378195855907
299.7885606133481815
299.78809539456068478
299.78890285852787656
299.79098698277493895
299.79412559446723208
299.79791633903278125
299.80187818369000752
299.80558620535430236
299.80878899719647279
299.81147372361556336
299.8138336430218942
299.81616854316303034
299.81874431723127827
299.82167020864324058
299.82484670325527532
299.82797506198818382
299.83066008512759026
299.83254693591788964
299.83342381224275641
299.83326987494706373
299.83221882955928095
299.83046793102653282
299.82819265952690557
299.82553362609507985
299.82263249133040972
299.81965030523934956
299.8167574414178489
299.81414337819063576
299.81204430102417291
299.81078470358693266
299.810783994546739
299.81253383904555676
299.81652353408179579
299.82315076066669235
299.8326282371895104
299.84484574378882371
299.85926015283848756
299.87482405283424214
299.89004647839601603
299.87973479781510378
300.05643294607830285
300.20378781978058669
300.20183888427476404
300.24098548680598242
300.23566824306527678
300.16181021745569524
300.14065795768482303
300.21090871412269507
300.21234878980686744
300.10656643011685674
300.03492346039502081
300.04664214219883434
300.11817611865370736
300.21846398521500987
300.27702429155021946
300.2464389108684486
300.14644930190848982
300.02051948720873042
299.94125229939930932
299.95328587561829181
300.04471011967166305
300.16164721869859022
300.2440483179082662
300.24422768837990816
300.1620907439598227
300.05516711086329451
299.98589315108625897
299.9785098983971352
300.02168896748662519
300.0903051710358227
300.15662149404641923
300.20349612791528671
300.23139141819484621
300.24195653668698469
300.22896766427788862
300.18011829411989311
300.09241093523621657
299.99049448637202886
299.92096443537434425
299.92094921719933609
299.98142666738391426
300.06199970382937181
300.12596643976388577
300.16412027968681286
300.18625173813967422
300.20786817914051881
300.24596421619958164
300.30327935457501098
300.36822139874254844
300.42521000866042868
300.45849389184604661
300.44337614992662111
300.37125833641363215
300.27668247631072518
300.21492033257112553
300.21915609873394715
300.28525151182083164
300.39229762624819386
300.50656375616995319
300.59137895981888278
300.62483902373423916
300.6127581962387012
300.58000970955782805
300.5530810321368449
300.56097608803759158
300.62823733347079269
300.75381766273693529
300.898667391493575
300.99816795625065424
301.01414849994944234
300.95553458341970554
300.86512933967372874
300.78912461408208401
300.75776257808155378
300.78276978544658959
300.85826673320940472
300.96031088445317891
301.0539215613127908
301.1101066324824842
301.11946548750864849
301.09140915364616831
301.04947602297261255
301.03259306800373452
301.08146767810904976
301.21021078799657289
301.38464312645800192
301.53783471807537353
301.61495001435571339
301.60305554987877485
301.52528928874068015
301.42204181420322584
301.33680736451589155
301.30148937104644347
301.32201378721680385
301.3752934569619697
301.42488311410733104
301.44406616533456145
301.4229893714004902
301.37285672579491802
301.31786096790733609
301.28925183141194566
301.31473546549699449
301.39916320454534571
301.516627306722512
301.62233659227018734
301.67451368644310605
301.65738681060173576
301.58892541820495126
301.51221661617734071
301.47111170289372239
301.4873969806886862
301.54935604819337414
301.61906363695277378
301.65639399824823386
301.64258353056749229
301.5890351266664311
301.52704565187133312
301.48666464096089612
301.48281680768735669
301.5160898018157809
301.57663121100080161
301.64817009699203254
301.71094138661447914
301.74714475896121257
301.74865645448164742
301.71974304980886927
301.67465230854298852
301.63052594865098399
301.59895458804601276
301.58341780696258638
301.57871510846007368
301.57624465712768824
301.57050577505179945
301.56350930574768654
301.56185462580765488
301.5730399430059947
301.59972915111387692
301.63841773652666234
301.67934159195596067
301.710242455244952
301.7221800656374171
301.71610691009061611
301.70359045539083809
301.69959694272318984
301.71227695648485678
301.7365943898150249
301.75860981349092071
301.76554435430699641
301.75138935845404831
301.71883105761463639
301.67317440645155102
301.61822945687328001
301.5568793582467606
301.49534243691198299
301.448631244661442
301.43664468380097787
301.47405228904557362
301.56066869616302029
301.6793559449159261
301.80365159343483583
301.90804543573830188
301.97500239663537513
301.99594182742032444
301.96905974174148923
301.89871165382868412
301.79566818859910882
301.67653793391889394
301.56087994219876691
301.46779257437304977
301.4118816777680081
301.40120652960445113
301.43695361980968528
301.51256056170637976
301.6137447866303205
301.71987223807201417
301.80779285295062664
301.85797959816289904
301.86022744687295472
301.81681383762526139
301.74123076765084761
301.65275951098647056
301.57060314804408563
301.51068701222163781
301.48279503931763657
301.49081753351993029
301.53290883879958528
301.60187216749420713
301.68691882148561945
299.52377969033875615
299.52974565169995458
299.53514402822906959
299.54048476440408422
299.54833845412696292
299.5607134533278213
299.57701543789863763
299.59340795031312155
299.60548455748261176
299.61050372113760432
299.6090908023855377
299.60461346378059488
299.60137383181006498
299.6028076830305622
299.60960504323753639
299.62078146269459467
299.63344603197703009
299.64495681858898024
299.65390825634318617
299.66056373509087507
299.6664670108080486
299.67380723738102688
299.68459463604955317
299.69980107849772821
299.71883163159691321
299.73978985210760584
299.76035336623124294
299.77857220983270281
299.79342334941514991
299.80462407255117796
299.81201861539011588
299.81528543727318947
299.814176557217138
299.80927640604778617
299.80278559641203628
299.79837224587089395
299.79989189957638018
299.80977025456775209
299.82781650086286618
299.85106148785229152
299.87512773522132647
299.89621599259322693
299.91287667013608598
299.92647180626101999
299.94011888967457935
299.95688376568199374
299.97805117125881225
300.00269807171002867
300.02831896860470806
300.05193784521964062
300.07126192035372014
300.08550346801717978
300.09551949296695739
300.1035653342768228
300.11239454254211978
300.12437791713699653
300.14041668407833185
300.15919459513264655
300.17764315413705845
300.19232199174376774
300.2008811795354859
300.20290179190789104
300.19960958729325284
300.19293815974140216
300.18460905496363011
300.17530359576448973
300.16486617244567014
300.15300642840350065
300.14032231015931984
300.12840280352065747
300.1192599454996639
300.1139704257495282
300.11197688851302701
300.11124588036994965
300.10939784210904691
300.10520149790687583
300.09902450894543335
300.09230392766812656
300.08635246811206798
300.08111433558985937
300.07484485685927211
300.06501827130136917
300.04981286631175408
300.02928550310730316
300.00566839740542946
299.98264933956443201
299.96413982136982668
299.95289604723853927
299.94956298531451466
299.95245405501117375
299.9582466369689655
299.96330790513377451
299.96506866485754017
299.96293459917296786
299.95829650062472638
299.95375587549864349
299.95192222396434545
299.95433694509921452
299.96105179836001753
299.97083632310784651
299.98186193964045287
299.99257562154821244
300.00223877734839562
300.01090706024479005
300.01902509494931337
300.0267669750566597
300.03362429288375779
300.03844287599252993
300.03991042208423323
300.03712462175735709
300.02998829576978324
300.01919968497333002
300.00603105846312246
299.99192686595171153
299.9782021816720885
299.96590744851147292
299.95579233347388026
299.94838156615065827
299.94394798949531378
299.94241625172190879
299.94318027687279482
299.94516406997621516
299.94701812083275172
299.94753111811951385
299.94596794330817602
299.9422462548304793
299.93695222466493533
299.93115124526394766
299.92605712318629685
299.92273236888286192
299.92184291537114404
299.92351994387394143
299.92743140918929612
299.93281095015981919
299.93852576955930545
299.94329785158691948
299.94598990777876679
299.94600676221318736
299.94358565566022889
299.93974627462165472
299.93591564682174067
299.93345364911999695
299.93317621089488512
299.93515478383937989
299.93875736227147399
299.94285231369656231
299.94619581700527533
299.94772096540384609
299.94673065838497905
299.94295319884218998
299.93654004559391524
299.92794556135430639
299.91775361971264147
299.90658472180564331
299.89508439592248124
299.88396697331461382
299.87405528147246514
299.86622394032434613
299.86114932335726735
299.85903837085646728
299.85943382391218393
299.86121983448640549
299.86285752236972257
299.86271728612160814
299.85942629780572588
299.85222758235227047
299.84125752364309392
299.82759010090421725
299.81297483038889595
299.79943775686092522
299.78885368519729582
299.78258594304003282
299.78132124549631499
299.78493839418524658
299.79247764236168905
299.80236291876707355
299.81266223406476001
299.82144210594600509
299.82705474814616764
299.82833980997065737
299.82480076836662874
299.81665029243873732
299.80477247318810896
299.79050529638243461
299.77531760259711291
299.76058418340579692
299.74739759905048686
299.7364583631188566
299.72809344393675701
299.72229988525509725
299.7187884694250215
299.71705552141082762
299.71650071448090102
299.71656430995432174
299.71684948088375222
299.71720215514238816
299.71770519046714298
299.71864902491603289
299.72044694167016132
299.72351794918228052
299.72817068876253188
299.73454570429208843
299.74254272074949768
299.75176958250767711
299.76155570582830023
299.77106031470270864
299.779459731850352
299.78612167109804432
299.79066946519907333
299.79293967962763645
299.79295322195491735
299.79092671550006344
299.78733806708669363
299.78288653339825487
299.77839854873911918
299.77472201751652392
299.77262066437640442
299.77258246748522197
299.77467422033362254
299.77854336740460894
299.78354755539248799
299.78893440675460624
299.79401174316922152
299.79828040399667088
299.80157128970148506
299.80408651808892273
299.80627882859715783
299.80864182785239791
299.81150261250132871
299.81486055479314246
299.81839768829740933
299.82159438508932681
299.82388009562288289
299.82480717488988375
299.82420271947563606
299.822240969564632
299.81940197653011637
299.8163001753597996
299.81346370813207614
299.81120136648075913
299.80959419128322452
299.80855699714794582
299.80793246430505405
299.80758700383603355
299.80751669565597695
299.80792369783807771
299.80924651160438543
299.81212710609054284
299.81728011293466807
299.82527126994187938
299.83630750668953624
299.85010006738025368
299.86580922167792096
299.88206212737668466
299.89714868676031756
299.77894676857266631
300.09602501696878107
300.23244088040831912
300.17761553812158581
300.17276629820759126
300.23485720023393242
300.24309156763644069
300.22749957525701348
300.24164213160901227
300.19806524474955722
300.10694360429295102
300.06684733924447528
300.0566008248412686
300.0704254835425786
300.1591497718326309
300.25240918821276637
300.26952312081755281
300.19539369292652964
300.03431566171576605
299.86858085639931915
299.85507467218371858
300.01363434913321271
300.20204839072835057
300.29458447715569491
300.2651602385386127
300.15107784729667628
300.01686615117023393
299.93046268587954728
299.92686254254903133
299.99720543317499732
300.09466303275638666
300.17614542897905494
300.23146871219825016
300.26273490302571645
300.26576509673094506
300.23012698953243671
300.14802650413361107
300.03596638567239552
299.94041344540482896
299.90548877874459777
299.94762157697823568
300.02707268926383222
300.09944506185854607
300.14533343659007869
300.1714045991611215
300.1951203603742897
300.22262598912942622
300.25264060690659562
300.28912238302399373
300.33904602411718088
300.40290403793954965
300.45207222532582136
300.44179813426183046
300.36144907555006967
300.26031651101749276
300.20711459791044717
300.23152227466249542
300.31415653060832938
300.42042090140108712
300.52416334515675089
300.6043621219410511
300.64223147678717396
300.63367137660065964
300.59810908951305919
300.57018992723220663
300.58415299443163349
300.65900586239223458
300.78126684850758465
300.91273850638521026
300.99882629026114955
301.00817616366708762
300.94463589603918763
300.85025239539197628
300.778116440975964
300.76369432254716685
300.81298564704138698
300.90499326974958194
301.00233771126642068
301.07287986980543337
301.10324642048988153
301.09856490645643134
301.07308474964145262
301.0459897555414841
301.04935037969130462
301.11713002048776389
301.25581860601874951
301.42551136947008672
301.56130107762413672
301.615391447357581
301.58410674293099873
301.4974347214627528
301.39929550733018004
301.3325932003523917
301.32143123091105963
301.36135630023818521
301.42211377314242782
301.46679828184073813
301.47446330715496288
301.44602199085164784
301.39549896734797585
301.34290844666560361
301.31660439687522057
301.34076909801905231
301.42053213789102983
301.53139723994956967
301.62946350502767245
301.67403583433139147
301.6501116157446063
301.57715947990163841
301.49817483575765209
301.45567434774989124
301.47050415711436244
301.53154501500432616
301.60226329889002272
301.64335160118787371
301.63617830785847218
301.59132947817732884
301.53769470456188628
301.50506334009503462
301.50836146801833593
301.54442107019298192
301.59952680957718485
301.65518969375733604
301.6946751194595322
301.70880338812276023
301.69671379331720118
301.66657013425384548
301.63113623090663395
301.60222754670678569
301.58711631510811912
301.58490125262386528
301.58873170504256223
301.58999889374803161
301.58582270894777366
301.58070419595355816
301.583661306336694
301.60038456502843474
301.63029277121279392
301.66561956422782487
301.69566182494543227
301.71169615172914291
301.71086143218212783
301.69942105897837337
301.68996321552134532
301.69307003833966974
301.71083034134341005
301.73411140498086525
301.74822296083158335
301.74237013126383999
301.71782252837374472
301.68308772293880793
301.64703170915487362
301.61173527122201676
301.57400000633651871
301.53283473056006869
301.49713179526747808
301.48448480571425989
301.5105228667784445
301.57829697823655124
301.67455292422380353
301.77723577656735188
301.86469155690286925
301.92197888547832463
301.94137357599601046
301.92125939375597454
301.86471185545781282
301.78053598274442493
301.68158329292964481
301.58325259123944306
301.50144678976249679
301.44918734573735719
301.43498346594668647
301.46165090619336979
301.52510235703510943
301.61355020930375304
301.70881781077815731
301.78920946165010264
301.83561286632783549
301.83724841391472182
301.79474616570030321
301.72031681128379432
301.63302510316037797
301.55359181832136528
301.49913343268531207
301.47951307763452178
301.49741793681675972
301.54826358154991794
301.62204643702801832
301.70668074648233414
299.53322854294043509
299.53983101435346725
299.5458655171981377
299.55169550898534681
299.56019488259136097
299.57404446750388161
299.59313814773850027
299.61363154114894769
299.63029240905677852
299.63909765550090469
299.64002019682806122
299.63662613057255157
299.63407442853429075
299.63657347137296938
299.6452361773798998
299.65754626659952464
299.66934766821378844
299.6774326841022571
299.68000073517350756
299.67868540202130134
299.67719491448656299
299.67876566213499245
299.68541864883746939
299.69751615429390768
299.71380072230061842
299.73232298332209211
299.75148040505570179
299.77045445432776205
299.78865302082567723
299.80495280093344945
299.81765525151536167
299.82493930024207884
299.82566842632462567
299.82063111549820178
299.81297301495624197
299.80728952050964153
299.80793186288309471
299.81735556130519171
299.83491340298468231
299.8573534365673936
299.88060962930865117
299.90175242449072357
299.92019098547979183
299.93757170422264835
299.95656558951532134
299.97928931757712689
300.00593734073021324
300.03453762300523522
300.0618172956681633
300.08463975470118612
300.10125545399387192
300.11181293449709528
300.11819340932851219
300.12327027457661188
300.13000742674449839
300.14054863752932079
300.15537596300708856
300.1730692280420385
300.19087001944234316
300.20564623087420841
300.2150283390985237
300.21806466684734005
300.21521295324032508
300.20772069466909215
300.19687119665081809
300.18367884896053965
300.1690080654149142
300.15404260782702295
300.14050893249515184
300.13027223988353853
300.12437541837061872
300.12236080611609168
300.12234951910630798
300.12171673045600073
300.11845856177973246
300.11221047413988572
300.10426578377558826
300.09643664447492029
300.08975776866924434
300.08369152197457197
300.07624750309105366
300.06506847248800796
300.04877185136530215
300.02803644329219424
300.00558868509091326
299.98531194135563283
299.97079850195774497
299.96391293323279115
299.96409110118003127
299.96870448635110051
299.97409213170493558
299.97692657241242387
299.97541165063859125
299.96983585005318673
299.96231603960967504
299.95578094905226862
299.95271136028009096
299.95420976544983205
299.95982430654362361
299.96802145305622389
299.9769783686292044
299.98551664042679477
299.99348167141323529
300.00149986078832853
300.01032596774268768
300.02011213370360565
300.02997402409960159
300.03810962875184032
300.04250478843448491
300.04174579909818021
300.0354987830310165
300.02455526486573945
300.01043888172631569
299.99487995178822075
299.97942045375015141
299.96523611914716412
299.95323534529080689
299.94409451335570793
299.93825015190611794
299.93571919924994518
299.93597184198330297
299.93790073562621501
299.94011554142031173
299.94133472389631834
299.94076334434839737
299.93825801947571108
299.93430438055867171
299.92986708459551437
299.92601414146855632
299.92356828196136576
299.92291016547125082
299.92393321383883631
299.92620507835181343
299.92908382459893346
299.93183580367070817
299.93376652770200508
299.93434135107139582
299.93338328614402144
299.93114778555974453
299.92827044543730608
299.92559742892240138
299.92391056186824017
299.92373994286282368
299.92518091623020382
299.92788821557604706
299.93113431089636833
299.93404445252178903
299.93570440316437953
299.93528223277132838
299.93217644416671419
299.92605454982975743
299.91686241874845109
299.90483149698638954
299.89057240130864557
299.87504532892484121
299.85948335158684586
299.84532071716375867
299.83396449871878531
299.8264074306524094
299.82286627321116157
299.82261119131845817
299.82411772597720301
299.82549671360646926
299.8249560330916097
299.82132253787608533
299.81436669162769704
299.80478923118164403
299.79396428977577216
299.78355107225542042
299.77502882779248239
299.76936428294493453
299.76693381823287154
299.76756360119890132
299.77063041703956969
299.77527689652379195
299.78058859978261808
299.78564363495650014
299.78956077852853923
299.79157050195971124
299.79110565363282603
299.78789012730027252
299.78198521643315644
299.77385485887282357
299.76429109546893415
299.75419343211831347
299.74433252213327705
299.73521487919771289
299.72708954091717715
299.72000192942959984
299.71389155158368567
299.70867999682900518
299.70434327626344384
299.70098120917066353
299.69880019763161272
299.69808151795126605
299.69907090577947884
299.70190664636862721
299.70660605391742592
299.71307732767866128
299.72112257459201601
299.73041819631549743
299.74052082646522877
299.75092641395082182
299.76112594227726049
299.77063436878773928
299.77899649586004216
299.78580603896824641
299.79071963375480436
299.79350478992762419
299.79404508036566313
299.79232834220255199
299.78847304860488521
299.78283506680850223
299.77610496870414636
299.76929737227362693
299.76359702425173737
299.76013146108863339
299.75967381917803323
299.76239940835080233
299.76781746915156646
299.77495495681478133
299.7826375442986091
299.78978313869532712
299.79561440933531458
299.79982718918421369
299.80262891783411305
299.80461171513718455
299.80645640025107923
299.8086480760757695
299.81127404766743894
299.81402054044809802
299.81632277060793967
299.81757206593738374
299.81732603180950036
299.81546436526525667
299.81225482621863421
299.80831347797101216
299.80445451648688504
299.80143257199387108
299.79968156823048275
299.79923035697783007
299.79980412049633287
299.80102442327137169
299.80255615494564836
299.80426091861403393
299.80629951942046318
299.80915492997587535
299.81351597140724152
299.82010691532468627
299.82945656908458432
299.84164516158784863
299.85617997098171372
299.87200043272298444
299.88760593803630172
299.90128443127321134
299.9114051409414401
299.79706593026139672
300.21283903212037103
300.13473007424772732
300.09748957789565793
300.30371487076786252
300.32019694363185636
300.2724756128422996
300.33498212486472312