# time            
# Time            	cpu               	clock             
1                 	2.8517030000e+00	3
