/*--------------------------------*- C++ -*----------------------------------*\
  =========                 |
  \\      /  F ield         | OpenFOAM: The Open Source CFD Toolbox
   \\    /   O peration     | Website:  https://openfoam.org
    \\  /    A nd           | Version:  12
     \\/     M anipulation  |
\*---------------------------------------------------------------------------*/
FoamFile
{
    format      ascii;
    class       volScalarField;
    location    "0.0074";
    object      k;
}
// * * * * * * * * * * * * * * * * * * * * * * * * * * * * * * * * * * * * * //

dimensions      [0 2 -2 0 0 0 0];

internalField   nonuniform List<scalar> 
106891
(
0.019249258891639656199
0.01923927836270661329
0.019223506692659993178
0.019214244327789117145
0.019199218015093784395
0.019190578590176136931
0.019176087598461420691
0.019168758344472520971
0.019155683305156826629
0.019149418425580433389
0.019134944132447449794
0.020345861463647939293
0.020343639817060155811
0.020327406112539032901
0.020260697918851943572
0.020097461984292439713
0.01994373839643368701
0.019824135471460325314
0.019741744116581510377
0.019693354535592420829
0.019673593752964294717
0.019669011800177972626
0.019671551766251575005
0.019685574917259744676
0.019744628787973120959
0.019919480999855448261
0.020110286249345639409
0.02025735806151136506
0.020359699521536839956
0.020420858138355382772
0.020450889070414750293
0.02046489102206774241
0.020478964617866260434
0.02050939576549098281
0.020557580103645254482
0.020613213238787890524
0.020672580311138645526
0.020736027501754152741
0.02080909906274335669
0.020897918725906374643
0.021006643365468553181
0.021135464559660768757
0.021279403230274423348
0.02142865499348191316
0.02157297839039134385
0.02169997248217233124
0.021803267082873768051
0.021876870702794499329
0.021924820163970466791
0.020383783770789035833
0.020363828408844573264
0.020350859005500248483
0.020331455523170380295
0.020319515457403208858
0.020300484579633241294
0.020289506472307844431
0.020271377879648902476
0.020260503534195419689
0.020242901121699321404
0.020232069335062271426
0.020214418634456755852
0.020204048439020839273
0.020186853850554034584
0.020176945127785252815
0.020160268394940165926
0.020151758967091634722
0.020136575823148750858
0.020129309793062290929
0.020112234292225025095
0.021592210790808748916
0.021547843295099577271
0.021403095178340214577
0.021215445895191802073
0.021067297402397766604
0.020960475046271485888
0.020891981832701224386
0.020858249070414790899
0.020846912900518547312
0.020847248659946377575
0.020853881817095101109
0.020885094522802707256
0.020995642657878711701
0.021138236356775072511
0.021241199040449434271
0.0213105163509999182
0.021358951401396288755
0.021400544018348382352
0.021446580444501844864
0.021501157621831461231
0.021563611244249034082
0.021629663168136501611
0.021694291425364040093
0.021754054830189648029
0.02180974691960958084
0.021866814472391266772
0.021933332322533860559
0.022018103190881276737
0.022125691042660232399
0.022256030170549407493
0.02240345366730360499
0.022559888923313699965
0.022712663293078538124
0.022852821047763885454
0.022968624968246181134
0.023058134260434817037
0.021440237194310613617
0.021418404205249895467
0.021404734190238753483
0.021383462651239897728
0.0213707654722834553
0.021349804660484535124
0.021337918974954177276
0.021317848028311291164
0.021306135069639426521
0.021286583391706661444
0.021274907209920888851
0.021255247009131755798
0.021243821291017105785
0.021224340135794664969
0.021213103019363712537
0.021193915920437799566
0.021184022363177869991
0.021166234896657049741
0.021157698087951086474
0.021137399411285687223
0.022745807999670523275
0.022741865907257449719
0.022716686979262500773
0.022615821237114221848
0.022421425094938964712
0.02227280814460683156
0.022178069726760996777
0.022126645679768856129
0.022106533295932501854
0.022101051409397338976
0.022100501360787290495
0.022102126680155223526
0.022109624589860727567
0.022140001171526653423
0.022217052618870521824
0.022302527117772887738
0.022390383948303685391
0.022481827526238590265
0.022579320697637569187
0.022683461483207292136
0.022792008540408189438
0.022900254310422332032
0.022999119459599228626
0.023084200695556843924
0.023153537023113776594
0.023211239454241174018
0.023266298499723038484
0.023329202564356006644
0.023409386395971804734
0.023509400412584115919
0.023627157149964841953
0.023753284336749214828
0.023878080646551256422
0.023991374473089650127
0.024086834691180083329
0.024164804260726778506
0.02252632894038737385
0.022511805191571133272
0.022488440350293299741
0.022474936032737376224
0.022452011220003252612
0.022439017128478646462
0.022416792810891927878
0.02240406332370915507
0.022382402665336996461
0.022369790666548091534
0.022347704419146911109
0.022335125683798966179
0.022313147423072620529
0.022300577672641645754
0.022278707609475954105
0.022267286139775643167
0.022246620868086590395
0.022236587819629238111
0.022212472481212861691
0.023875825177387757087
0.023870894146225105081
0.02385228134457914595
0.023784046388617488543
0.023631318758117185463
0.023502234049175636105
0.023412241490543186234
0.023356501497440257387
0.023326023536356987886
0.023313749185510965894
0.023308972283955103205
0.023307931563715932055
0.023312799921508541717
0.023326311381384273735
0.02333984450716053427
0.023363334525217580723
0.023412602136569867634
0.02349814248609906342
0.023620364478798672181
0.023772397974267736598
0.023937806526624371556
0.024097846938711180859
0.02423645021748374942
0.024342158500545652694
0.024411809666027271121
0.024449995197176863787
0.024467842854337128883
0.02447849325973689219
0.024497258444007085493
0.02454064735300693495
0.024658444495321396595
0.024847558023852564513
0.025045066141375346702
0.025235290303092374614
0.023715598364537005677
0.023689747965894816101
0.023674590694254607492
0.023649130229403039077
0.023634465561444960302
0.023609180756793926581
0.023595047484554650813
0.023570514483496729508
0.023556483910839060014
0.023532195607735006959
0.023518255934161680365
0.023493353315361727857
0.023479427178850303254
0.023454585825169144836
0.023440598568829285747
0.023415990302612231522
0.023403035464704617652
0.023379339620267954036
0.023367647918126357998
0.023339289685648158951
0.024764880384151401194
0.024636477890188943768
0.024529946026245016966
0.024446970780104250454
0.024387832039616298002
0.024349476418776914294
0.024328630720685254923
0.024320676206542844733
0.024318504485881034527
0.024320169369291773365
0.024333257910627594661
0.024392805856707479306
0.02450178079524785793
0.024587487317776081375
0.024656273255770581182
0.024721813817731148888
0.024801321444682625228
0.024902612399986732289
0.025029626698376328253
0.025174542033943647645
0.025324616182695044303
0.025468705839313331846
0.025593250686681716377
0.025694470510820990178
0.025772167345448723785
0.02583496366120423271
0.025894660942708033063
0.02596280924994056119
0.026049132025444138999
0.02615532641632378405
0.026279529974861458308
0.026412969664129076069
0.02654545081196445569
0.024911671623694859462
0.024895483149961813302
0.024867499282089255974
0.024851603049052331529
0.024823798011723383766
0.024808216469232900053
0.024780892121213163315
0.024765405883412805466
0.024738100343110830392
0.024722345756243983839
0.024694155783308632118
0.024678569344252641177
0.024650719603479941122
0.024635287453606099367
0.02460793055739985899
0.024593457524703508932
0.024566665734935624194
0.024553301920875816172
0.024520630851708639236
0.025763421070394726398
0.02567132070220188092
0.025612369701985090997
0.025578532513946102001
0.025564158873435816749
0.025560230470268216485
0.025560925790686174486
0.025565177988069256315
0.025586893832323768377
0.025667945246589274344
0.025780501223173483971
0.025868944093230764741
0.02593796170861244893
0.025997284642203164623
0.026058836407163107202
0.026136655190604266702
0.026236971965751639674
0.026364489062421340299
0.026514395005671362315
0.026675254111797639528
0.026833866168526822327
0.026977707495730189613
0.027097736676656811183
0.027191275338354154584
0.027261904795218359909
0.027317973327105251474
0.027370922637608412903
0.027431548328857031926
0.027507253013523424306
0.027599831927065627407
0.027708289882687805322
0.027826630986090190173
0.026194774113086079226
0.02617759321298459077
0.026146964781263055955
0.026129619243488264035
0.026099165738167031531
0.026081960529712198971
0.026051555960237979953
0.026034358627495774591
0.026003556184682894564
0.025985826451733362585
0.025954338431627782535
0.025936952170495380932
0.025905975027274423528
0.025888993695296434044
0.025858652199938849531
0.025842661743056799528
0.025812769362301746928
0.02579783719523789931
0.025761041434428425673
0.027190624945976241827
0.027143823241398936513
0.027116536062586502065
0.027103220074526850752
0.027097773956372871867
0.027094866985878644783
0.027091322350558007248
0.027086097611860260326
0.027078551165983070353
0.027070339783696804187
0.027066504141536738837
0.027066226873890333882
0.027070088713368127553
0.027083386280564815396
0.027123352934633013223
0.027243350594821452021
0.027451116652435939708
0.027674898735454617205
0.027907112545568386885
0.02813278583335902458
0.028335383252353536082
0.028503570858692008766
0.028632998370750496059
0.028723822140987908397
0.028786570451893214728
0.028832059797854987099
0.02887526065495671368
0.028925821731664566605
0.028991933056789660761
0.029075659895858713827
0.027528720435493782975
0.027495596514555738915
0.027476928549174026856
0.027444064316762710465
0.027425192468594018769
0.027391833466924347257
0.027372913377509099087
0.027338836602066013404
0.027319275349601025715
0.027284745705223049234
0.027265755064775316213
0.027231797487399338198
0.027213358090635814818
0.027180024729078253176
0.027162710442996465532
0.027129905478865297408
0.027113614358408089089
0.027073357863230160247
0.028545636712993406603
0.028473170351544389856
0.028419128032894504926
0.028377225570352770934
0.028344797082729116661
0.028318145062661861239
0.028297132245221380542
0.028281068582377090481
0.028272931878604853212
0.028270119178056347248
0.02827285822889889777
0.028289997729566571105
0.028348616728685709087
0.028507458595047809047
0.028706689994925781162
0.02891576735890958455
0.029138259932254977763
0.029370528367496488015
0.029599663688085149638
0.029807173504950119219
0.029978015749385109739
0.030102880453033224045
0.030182170263360817014
0.030223398245701360576
0.030246652159860096254
0.030268789557265477624
0.030309793701581329295
0.03037996434202033802
0.029030069337880427122
0.028997099211511976474
0.028977088031356627168
0.028944237245644769546
0.02892383984295305438
0.028890399265736221857
0.028869785365604055949
0.028835089748157884115
0.028814204405176683382
0.028779010998600300375
0.028758713752720318352
0.028723382773774123328
0.028703987590762151255
0.028669357190966436588
0.028651227973504635876
0.028617022014527815355
0.028600130060347020433
0.028562737941627284327
0.029939337030423791852
0.029908246800413190031
0.029884855174659035598
0.029867240283667436523
0.029851830120603273233
0.02984115354610025056
0.029834167625377983751
0.029830660052278454297
0.029833565598368909366
0.02985694148842616899
0.029932585654279437321
0.030031614180081569326
0.030139423145540626681
0.0302687462488956463
0.03042568425169868071
0.030610413397112290479
0.030813928523501770557
0.031021629562103563565
0.031215824060114218813
0.031383295666858275486
0.031516338299462542949
0.031614925835997717551
0.031686837782596233293
0.031746439684733306075
0.031808068629557810503
0.031885332208122528497
0.031983393771775454895
0.030226624908518812812
0.030185285747260835743
0.03015562514728124463
0.03011345919211206798
0.030083063430009899381
0.030041408545080285075
0.03000907905126997538
0.029966295574562939324
0.029933004669531415587
0.029889277936626018617
0.029855562316550253443
0.0298119597881751075
0.029779405597518484455
0.02973561234034816092
0.02970412101250101064
0.029661116866887365234
0.02963003157151543332
0.030612012045739073196
0.030662827248301570415
0.030693116193251233914
0.030707207308548836039
0.030711182397574740555
0.030710722525094283353
0.030707991308598574232
0.030708804868194040233
0.030722937308091346348
0.030774855603065330578
0.030827614176625741521
0.030867543815486148118
0.030904589646533944108
0.03095362448511137024
0.031022383546296921492
0.031122009238963202482
0.031250568026953084999
0.031405238456615858222
0.031577515595136683435
0.031755145060820458291
0.031931861097020508566
0.032104170748972232774
0.032276631334322104794
0.032452301819247145187
0.032638645435597322952
0.032835662445273562648
0.033036256433627050888
0.030156755372997934989
0.030124237398847595465
0.030060528721468953578
0.030027917230800806742
0.029963089524989640344
0.029929535878018970196
0.029862718999835766165
0.029827687541217163397
0.029758820397854844619
0.029722675244731374539
0.029652607367038390229
0.029616379000795615278
0.029545932170739939993
0.029510103289993209336
0.029420828920647051213
0.029429405395506161303
0.024470865592280195006
0.024589042857483842802
0.024664854807213348192
0.024703530679593514729
0.024719376961702354406
0.024730539837205495202
0.024751255778522433804
0.024801458011146349653
0.024863733930238194475
0.02491528406658725589
0.024948883978291740843
0.024962180003362231112
0.024962596992663600715
0.024959567439140704914
0.024953868812651738146
0.024951931816761977606
0.024953798238067547571
0.024967361846874376596
0.025019431696376541463
0.025174345680249527596
0.025376608147813065758
0.025575037754170696497
0.025771623152619077546
0.025972259900187429082
0.026171718420662241217
0.026373564704882338644
0.026567240374724462176
0.026744790792208247843
0.024147959628568950452
0.024089616171910667453
0.024058377878945064882
0.023999751089958137884
0.023968753129080536818
0.02390955423471529534
0.023877958761085723433
0.023817827575521630101
0.023785833404345219783
0.023724817852282139435
0.023693367875578880133
0.02363210355599283316
0.023601647252770283775
0.023526835469520817473
0.02354444491482300672
0.022866235832257966049
0.022872894905813352662
0.022884363442216053286
0.022909097357885946367
0.022975803626538178481
0.023097886101355727395
0.023215744474255332885
0.023313937318633588119
0.023382966500430389656
0.0234224042725716744
0.023440947620748244645
0.023451667650910893587
0.02346967578271815652
0.023511642818447388986
0.02359699275896404852
0.023716814652043609335
0.023861628522443462802
0.024016558995499558138
0.024164944570297892945
0.024290605492038330054
0.024388492085362343392
0.02445749172889214243
0.024509401542888623049
0.024557575475291883865
0.024617401379333679612
0.024702354573273643118
0.024814469037608206936
0.022689565432986058546
0.022667130358841321852
0.022624213339674986711
0.022602065549009280054
0.022559342265051966075
0.022537417411731264227
0.022494482007935280576
0.022472201981163623247
0.022427969045190655761
0.022405281670607481853
0.022360471933816777196
0.022338020000513318652
0.022285457084023171936
0.022280112395897680444
0.022168547373501098358
0.02219208929563661753
0.022202845961746788678
0.022209149366074720094
0.022219367070793787783
0.022244739921275638594
0.022310357753313022483
0.022381323360615795748
0.022433121104174315319
0.022467668177267623858
0.022496365838516559077
0.022533784020170300605
0.022595383578323781359
0.022685141073575835341
0.022798934211893964047
0.02292290639806831426
0.023040561802949579423
0.023139526384089219302
0.023212061030121283051
0.023262356282788051315
0.023298515624066234997
0.023336863320701433516
0.023392707356665532609
0.023478579121463314522
0.023601400976951288774
0.023755034544923763623
0.021862654279957868114
0.021821782878006852624
0.021800941287692426201
0.021760552486517828474
0.021740149721948914124
0.02169979652971263176
0.021679162815792244606
0.021637583607461957635
0.021616377829934436267
0.021573862552706359053
0.021552481224278368516
0.021503629472429293401
0.021495366372022095547
0.02149128273899776273
0.021480790465200329253
0.021463046228275082378
0.021447985908775672043
0.021437719809335384347
0.021432984843668932001
0.021432756025670414435
0.021435317182213638881
0.021447146952635567918
0.021492412760066633565
0.021614269978060336036
0.021760465235821681296
0.021905686901580866122
0.022043341262677425968
0.022163259467067090991
0.02225836453221180164
0.022327876462150540032
0.022373957126565632847
0.022407736994709919615
0.022440124853477055183
0.022486225607819463473
0.022556159806285169811
0.022656627850060014062
0.022787896053908466426
0.022941246190207750799
0.020984993883997722641
0.020964562609770920343
0.020925324881972115487
0.02090566976346203143
0.020866795094977064889
0.020847204760331063123
0.020807463111960668167
0.020787278411107588255
0.020746481763967254686
0.020725768251166541006
0.020678136428888570231
0.020670007596934141664
0.020647273129377460843
0.020650570856467008463
0.020652179687323857227
0.020655721440817481627
0.020665981342019874162
0.020700056756367466587
0.020806320821501595592
0.020929125455778452986
0.021011112490762026694
0.021059634810746394318
0.021090706955049665083
0.021122364321634383433
0.021165537973496694607
0.021224930897555390613
0.021294597238664288164
0.021367476271243281138
0.021433634800705977236
0.02149175029311279489
0.021543560573689429088
0.021598099367441114804
0.02166660158650146259
0.021756010475806986798
0.021873799029505227448
0.022016166723934919164
0.019843756518497582264
0.019848326898002241481
0.019857749094623147051
0.019881456240956132259
0.019953113398722757688
0.020098584564005615716
0.020225467993327670563
0.020319691103514076619
0.020384972040589421916
0.020431535116882955372
0.020470619789504051339
0.020510720315000560005
0.020557095214036501252
0.020608381102414113917
0.020662920963902618732
0.020714971127478231522
0.020765883841059307874
0.020816663110317969176
0.020875422873700148069
0.02094943934719889489
0.021043436340772676135
0.021162292872148054379
0.021300887624135549786
0.019180808625756301522
0.019193165268951994235
0.019233344621939707508
0.019307629028292517398
0.019374063871098384793
0.019432757006806793132
0.019490481639663288088
0.019552989538012370552
0.019624792020322013447
0.019704943868374291682
0.019788987600210437845
0.01987001028599190075
0.019942882426497901549
0.020004785912011231047
0.020057672814581661153
0.02010682759923025989
0.020160090348547536621
0.02022501671159476419
0.020307715230908015419
0.020410083407887590762
0.020526748953898457661
0.018614782952173111047
0.018637439375209965964
0.018667835470700378658
0.018718394148878783612
0.018798798671918193204
0.01891032204037227174
0.019046913500797086477
0.019194360997121389517
0.019336029169196473909
0.019455988705060461852
0.019544919142042649352
0.019601258199274291388
0.019631656080695846639
0.019648826143136122191
0.019666726336365333849
0.019700148648482584263
0.019755740728457933664
0.018062598110249600269
0.018190882092507298928
0.018337919811395549108
0.018493576744540485973
0.01864456263261086294
0.018778466204354322261
0.018888329480250168335
0.018971549159249229133
0.019033671322990521751
0.019081668889439143411
0.019126361708795561883
0.019176887327275276424
0.019237556173222161715
0.017638373740376203647
0.017724723256995731507
0.017815972308351135656
0.017902643380343953583
0.017978577452358070199
0.01804197042141663862
0.018094124285306097816
0.01814311214724066007
0.018196486342831951627
0.018262612464148581665
0.018345320792940260357
0.018441117163857184691
0.009863067004480917041
0.0096052576610684229502
0.0094250376860183990302
0.0093059267722922275196
0.0092395129101429211704
0.0092207000074232426529
0.0092251119878084993087
0.0092654793796428745051
0.0094421382664470702301
0.010099562863685788983
0.011363094449572843161
0.012348397868303712457
0.012971819582873869714
0.013287443007084854749
0.013399621461216943558
0.013413428155803293687
0.013396781614499848542
0.013307760747651260422
0.012982319902515464249
0.012281983358815556917
0.022228972866466086
0.021324997168656177615
0.020700663830752728117
0.020272469036377211565
0.020013791821032789892
0.0198874812290989883
0.019874230822425457271
0.019900726427048057166
0.020027940742662661555
0.020477830396914482869
0.021946771622334805552
0.023922499161307082122
0.025330231922627555879
0.026156268598761325123
0.026531752904596601211
0.026625340713951832494
0.02661864770822181675
0.026557129599173796147
0.026343480390109228623
0.025671694513334817472
0.024449352666276912699
0.023239015767185032535
0.071501232676922765741
0.069099183240781056337
0.067512984427915104235
0.066652210396872191289
0.066300273678970594871
0.066292459145747537064
0.066385270811253255241
0.066631199958270867501
0.067145732098387964082
0.068383621540419020635
0.071185297944269032566
0.073905913491603053567
0.075896704121660676923
0.077063406281826105082
0.077484346470534745666
0.07752837948685543934
0.077434522998244437186
0.077124880216435612312
0.076372158048213678594
0.074974062082316314526
0.073312912221392093071
0.071465973043779232321
0.069550675069677367346
0.067790445654664369113
0.06645211266649814208
0.065720132067666581221
0.35975974497055906998
0.35878349226674227657
0.35879700971298950085
0.3594276678405350367
0.3613537811974573688
0.36416380269373010981
0.36805718504102935551
0.37372389853830667583
0.38161002751768469121
0.3908773465554276072
0.39983598942780967933
0.40682767461890068095
0.41111259906441072198
0.41254049223806515956
0.41269534185993272946
0.41213788323572575489
0.40951818247207094625
0.40413567819436524431
0.39957087547847447428
0.39612718051359668836
0.39343899237988544382
0.39134374757952028467
0.38990616284585360996
0.38907010812986841941
0.38880604019990583353
0.3888753271323545091
0.38964368181501302102
0.39260721682178734149
1.7284783041420315186
1.7279238172956288278
1.7292389636406273468
1.7355410004420972481
1.7457991507118912899
1.7553563233446558556
1.7652793473842609551
1.776130774537429291
1.7871141927252234272
1.7968083526261455773
1.8040788604465027856
1.8075138258979011052
1.808458917137609312
1.8080288298509785694
1.8047234886310703494
1.7949653901573250359
1.7840525411709733383
1.7745475362372624684
1.7667137912008221701
1.7603063986024125587
1.7550030618160872287
1.7510458711655525477
1.7486383676381724861
1.7474887044965747851
1.7473229888505590335
1.7481247379317639279
1.7525159919827344446
1.7634457595377086569
1.773872412372324181
1.7822741217626372201
4.1416767824788989216
4.1343161182119736452
4.1265074138297235251
4.1177382519206853217
4.1081963399449179519
4.0984498153411870192
4.0889682083892395781
4.0796378108409721008
4.0696066250233027262
4.0577282612062681721
4.0432140769996731677
4.0260939635406112203
4.0073389439214039953
3.9884301114427960222
3.9706800745142638576
3.9548703465758974218
3.9411216263303110452
3.9290598573393862303
3.9181448847018809367
3.908033859951098421
3.8985601581855138242
3.8897832142393382604
3.8816896458165501826
3.8740995972469263187
3.8666840330977483298
3.8589978201950994041
3.8506645346162899912
3.841237893121345337
3.8301902941542667058
3.817231484518342377
3.8024004101254544885
3.7863092843939747389
6.0591568310742518477
6.0360054805387832744
6.0132430406533243783
5.9905179922718279073
5.9676366160021849794
5.9447771174133094974
5.9222941405066604759
5.9004609545302155738
5.8792137944101794389
5.8582623639283166739
5.8372561887380083334
5.8161809018594734511
5.7954650884094247587
5.7756338521489611892
5.7569709563191189261
5.7393114832306437734
5.7222184629189509764
5.7052762379701178475
5.6883980899948669574
5.6718114711838971687
5.6559042156726180295
5.6407619717481018995
5.6261249433581479451
5.6115793559039586214
5.5967453713775423552
5.5814952948486613593
5.5658984078393896056
5.5501934988543908389
5.5345662110956590496
5.519158577500356877
5.5039984486236157579
5.4893055160745705123
5.4752344760665332402
10.253887718087558056
10.149649329317645297
10.04820483892380345
9.94926881561744203
9.8526159417202165969
9.7588821998961989834
7.305920850499909136
7.2835393256701790321
7.26130401130813663
7.2385845868043325879
7.2152765773557954176
7.191815037739806904
7.1689662847846618021
7.1473002164275083459
7.1268370250036188196
7.1070366466258310112
7.0873349837907229087
7.0675559149978264273
7.0480579472980799949
7.0294142108966077842
7.0119666868368444312
6.9955065212536622354
6.9794171967272111701
6.9632097668188315254
6.9469018921097172026
6.9309633602171869526
6.9157547131860814815
6.9014076279935476776
6.8875538103785878263
6.8736551452430783016
6.8593807067238135033
6.844746383443925275
6.8300404388234579045
6.8154976015986665772
6.8011616399668417543
6.786983808265742546
6.7730406558145439533
6.7594973314958961552
6.7467485194179657171
6.7347651087177835549
9.6516011405984922789
9.5544910610835600551
9.4578123593897398536
9.3623120198138956027
9.2686420322897191681
9.1784565185929594122
9.0936384380495081103
6.769104705263103483
6.7465753199752844793
6.7231207805516168818
6.6993113282779575002
6.6766459379297025123
6.6566933204427112258
6.640135954856977385
6.6264276652046039118
6.614160852226072862
6.6019762522550564654
6.5894611632496218334
6.5772888863521012937
6.5664778668750107826
6.5573899617195658962
6.549301121117800939
6.5410069824396339655
6.5316864116128785511
6.52157104178021374
6.5115896770300167873
6.5024513007830844202
6.4939328464163885712
6.4849782752414624198
6.4744481227673302826
6.4618522895450398735
6.4476410578850718025
6.4327994538380313116
6.4182314751870910285
6.4043677984741931297
6.3912709095862973996
6.3788883811476209118
6.3673216703278887607
6.3567036330659503207
6.3468479134729509639
6.3370338797221892335
6.3262345315521848477
2.1919455440428545395e-06
2.1989274725213639716e-06
2.2045576196456874263e-06
2.2115416604937925231e-06
2.2192917065018482379e-06
2.2266235498859729301e-06
2.234752820515060971e-06
2.244497463743539573e-06
2.2540480750864777716e-06
2.2651753470349917457e-06
2.2800052782480214806e-06
0.0002873388189396135434
0.00026207639621295125828
0.00023609531106665439075
0.00021038843619113726537
0.00018610664952505723019
0.0001641962837506698498
0.00014515096593633371744
0.00012901641773138247042
0.00011556366849735605438
0.00010449067487795915131
9.5485031589988029078e-05
8.8265606504588328511e-05
8.2556313558128694395e-05
7.8096780185803879528e-05
7.4644652599861098866e-05
7.2009846201791534296e-05
7.0027199060674680925e-05
6.8591955244322655775e-05
6.761278908337335213e-05
6.6958383290505960874e-05
6.6514358651292848634e-05
6.6201456225642725637e-05
6.596658324143200977e-05
6.5795653776519496441e-05
6.567920434489867411e-05
6.5619279089766172877e-05
6.5599889210861417072e-05
6.5613676409754633769e-05
6.569900177369762586e-05
6.5984978805157663536e-05
6.6309576873999718908e-05
6.6544959197366681364e-05
6.671084908410917808e-05
6.6819656743868840066e-05
6.6887727847287904671e-05
6.6929670205073142956e-05
2.300248912280023578e-06
2.2947058782624592617e-06
2.2897906024218347741e-06
2.2858201327759274618e-06
2.2829068012521504736e-06
2.2819484096472651712e-06
2.2821166076039162043e-06
2.283144144080230371e-06
2.2853487620296508338e-06
2.2883542892870010941e-06
2.2915038742713083282e-06
2.2970285990600752517e-06
2.3017488727311873864e-06
2.3077763499432362232e-06
2.3127894603535282579e-06
2.3189869721022232342e-06
2.3239872416815259825e-06
2.3326860958950992956e-06
2.34245844600134493e-06
2.3529706976146838353e-06
2.3685821625313678607e-06
0.00029979153223816786206
0.00027068365019784442795
0.00024317975628012286084
0.00021792809263300593902
0.00019541613681579134924
0.00017578169800334101551
0.00015878260791455869752
0.00014396760020608410577
0.00013086609040616290628
0.00011917079427106296854
0.00010874481465988287531
9.9567974754532451664e-05
9.1671588974162731959e-05
8.5049364288966903484e-05
7.9665023722264770517e-05
7.5410124764566812783e-05
7.2126292744935816426e-05
6.9642483361526607514e-05
6.7813428020545854979e-05
6.6473841128294211501e-05
6.5482371174886989918e-05
6.4743916167541936909e-05
6.4208366654980078537e-05
6.3841981078891318186e-05
6.3616998731784159217e-05
6.3511063786720868768e-05
6.3480605021069656932e-05
6.3493263683198685539e-05
6.3578396197341732711e-05
6.392752647854999166e-05
6.494456989530654424e-05
6.6136959889180881532e-05
6.7202299519566590443e-05
6.8142843118163093602e-05
6.8926363316997455778e-05
6.9520207047097916592e-05
2.4071066423052837579e-06
2.4010342295538146407e-06
2.3954682027222402564e-06
2.3913564339886643984e-06
2.3894379347503074067e-06
2.3894058752949637374e-06
2.3899817465871416909e-06
2.3917226885280712975e-06
2.3937113861759144067e-06
2.3957576057352659452e-06
2.3981961104360341831e-06
2.4012793824407681535e-06
2.4045181980942668943e-06
2.4087322016223847088e-06
2.4125383755399307336e-06
2.4179125718644447013e-06
2.4222629288129842011e-06
2.4292354084864193423e-06
2.4376976376948433366e-06
2.4478762402321841111e-06
2.4626070435878842432e-06
0.00030248725005897563432
0.0002724192981855688288
0.00024398392160118861829
0.00021784202318419313717
0.00019445401192358651322
0.0001739051536272123743
0.00015599340379158184509
0.00014035954196759640056
0.00012668875422432857155
0.00011473868645013123285
0.00010437277217829029946
9.5475185103236086845e-05
8.7982033666524035254e-05
8.1815297080343752636e-05
7.6876353367800055304e-05
7.3029636333786304031e-05
7.0149564356754385229e-05
6.8086378859303817689e-05
6.6696462118181692818e-05
6.5823058772132502186e-05
6.533173666558503409e-05
6.5105326190470705762e-05
6.5040123863625222043e-05
6.5041701552699860865e-05
6.5103145620068673233e-05
6.5366217761055658278e-05
6.6103760435598280009e-05
6.6902698216685129503e-05
6.7602345078786354169e-05
6.823079258637424697e-05
6.8814976047639449057e-05
6.9374940633290323893e-05
6.9945586389688401904e-05
7.0520586166962416995e-05
2.5157415749191316957e-06
2.5110190708367217069e-06
2.507903347998582516e-06
2.5067210490337878096e-06
2.5068250727208053172e-06
2.5074067996516437408e-06
2.5088455698200088272e-06
2.5100403370670149176e-06
2.5113848168925615829e-06