/*--------------------------------*- C++ -*----------------------------------*\
  =========                 |
  \\      /  F ield         | OpenFOAM: The Open Source CFD Toolbox
   \\    /   O peration     | Website:  https://openfoam.org
    \\  /    A nd           | Version:  12
     \\/     M anipulation  |
\*---------------------------------------------------------------------------*/
FoamFile
{
    format      ascii;
    class       volScalarField;
    location    "0.0074";
    object      nut;
}
// * * * * * * * * * * * * * * * * * * * * * * * * * * * * * * * * * * * * * //

dimensions      [0 2 -1 0 0 0 0];

internalField   nonuniform List<scalar> 
106891
(
7.9752070900588217681e-06
7.9676035817380891872e-06
7.9588075340175339491e-06
7.9513654972037667984e-06
7.9427373099476044678e-06
7.9354366762854102173e-06
7.9269325935418794146e-06
7.9199150015218873532e-06
7.9117165650560717234e-06
7.904930525187535626e-06
7.896456167143047389e-06
1.0368450886499563782e-05
1.0360686412785722176e-05
1.0349361302977630163e-05
1.0325191952289021485e-05
1.0276374154422431885e-05
1.022988970756918594e-05
1.0192087939201681702e-05
1.0163824553821320008e-05
1.0144312443770911729e-05
1.0132182031516861082e-05
1.0123968171927846479e-05
1.011759235674505201e-05
1.0114170852185311552e-05
1.0122297270587449639e-05
1.0159959506235834715e-05
1.0201416063583406432e-05
1.0231542284420878672e-05
1.0250233293117444602e-05
1.0258489747990062388e-05
1.0258902394318700536e-05
1.0255288591219617538e-05
1.0251691594014186354e-05
1.0252182638919463354e-05
1.0257092306714433598e-05
1.0263830775353219757e-05
1.0271463936533716603e-05
1.0280071815304303346e-05
1.0291018859211901527e-05
1.030579786061379982e-05
1.0325397977690479269e-05
1.0349818515994741017e-05
1.0377791100087164231e-05
1.0406891464848210959e-05
1.0434628457454220789e-05
1.0458030256432984746e-05
1.0475613255803571298e-05
1.0485994748990251887e-05
1.0490191648375647403e-05
8.4730803069807664846e-06
8.4630518559018900516e-06
8.4544824499091758129e-06
8.4445839278726152888e-06
8.4362426242906096377e-06
8.4264365868477883529e-06
8.4183090005288348289e-06
8.4087051182966180134e-06
8.4006128827895232411e-06
8.3911328752329467041e-06
8.3830632028713533482e-06
8.3735878819507861688e-06
8.3656274902229072897e-06
8.3562612204682883875e-06
8.3484098448688602513e-06
8.3391651860827359035e-06
8.3316164456798907196e-06
8.3226947461121507149e-06
8.3154156770701631785e-06
8.3061170817638140765e-06
1.0951459837684091747e-05
1.0932606838197220372e-05
1.0888260030406020652e-05
1.0832897685853532275e-05
1.0787513176051076927e-05
1.0752658511245146092e-05
1.0727622422087641462e-05
1.0711516247382878397e-05
1.070117013908518475e-05
1.0693826484994738488e-05
1.0688101772683674458e-05
1.0688671154303496153e-05
1.0709481532742764085e-05
1.0738326425153604972e-05
1.0756973723092902743e-05
1.0767030581920763215e-05
1.0771775432264573034e-05
1.0774772284601370092e-05
1.0778866383127928198e-05
1.0785079447544626902e-05
1.0793232706468169625e-05
1.0802245392303329286e-05
1.0810860473492527837e-05
1.0818224844994658876e-05
1.0824543097258872994e-05
1.0831170383594606522e-05
1.0840100379139954812e-05
1.0853487551365249695e-05
1.0872418219954898776e-05
1.0896824220724024056e-05
1.0925264197335164866e-05
1.0955729643050305335e-05
1.0985130640168424293e-05
1.1011322207662125353e-05
1.1031521774839641488e-05
1.1045321887562162459e-05
8.9158545038016221048e-06
8.9051266763242089284e-06
8.8961036200834058999e-06
8.8855086968800656269e-06
8.8767029308887411722e-06
8.8661886236524854065e-06
8.8575662869549335145e-06
8.8472526176160957062e-06
8.8386808332055537231e-06
8.8284906366458462793e-06
8.8199410925676455036e-06
8.8097440726665313972e-06
8.8012610055729684666e-06
8.7911167134246247657e-06
8.7826871863749235642e-06
8.7726193306419333483e-06
8.7644821481748510448e-06
8.7547191823195708439e-06
8.7468763858369535192e-06
8.736609506569444891e-06
1.1532498391332153702e-05
1.1523492731753327251e-05
1.150911550440088203e-05
1.1475562953981495671e-05
1.1418203832096759679e-05
1.1372397730521486609e-05
1.1340306456884105245e-05
1.1319287118809885737e-05
1.1306286168559133516e-05
1.1297035312699008631e-05
1.1289051353252332042e-05
1.1281628234972869266e-05
1.1275707550576745538e-05
1.1275616737324411213e-05
1.1287378133346478727e-05
1.1301218126190294637e-05
1.1315593994543038484e-05
1.1330804820806011265e-05
1.1347462482185396293e-05
1.1365704236751112387e-05
1.1384955894620198941e-05
1.1404035810210963386e-05
1.1420691253491983114e-05
1.1433852198666910062e-05
1.1443060456222129616e-05
1.1449355825049544833e-05
1.1454968552990747198e-05
1.1462479374248656561e-05
1.1474189074073110108e-05
1.1490690578795787738e-05
1.1511434728887042758e-05
1.1534105536343649732e-05
1.1556336019893464866e-05
1.157567660977734939e-05
1.1590630294076523102e-05
1.1601314357138664042e-05
9.3700307579111259665e-06
9.3605061593073200668e-06
9.3491517168543572086e-06
9.3398550894525834314e-06
9.3286091617656292886e-06
9.3194343735610408948e-06
9.3083508651315531726e-06
9.2992466858264785195e-06
9.2882969580973078334e-06
9.2792327102462641286e-06
9.2682114263061822853e-06
9.2591696216349503253e-06
9.2481874533430025404e-06
9.2391630154535537179e-06
9.2282199444948276876e-06
9.2194486921482987461e-06
9.2087715729727517318e-06
9.2003026342974185224e-06
9.188928206192303007e-06
1.2114333887027449793e-05
1.2104672792361083263e-05
1.2091551758574823776e-05
1.2065860945546461673e-05
1.20187081741506389e-05
1.1977515767287437464e-05
1.1946262187001204086e-05
1.1923748497162258401e-05
1.1907693094744530184e-05
1.1896294440384247264e-05
1.188681693149410223e-05
1.1878298787086813461e-05
1.1871291334022914215e-05
1.1866486405508120175e-05
1.1861686937393898928e-05
1.1859414785532319619e-05
1.1863669905488650775e-05
1.187707079328272647e-05
1.1899651505200114417e-05
1.1929597972780743242e-05
1.1962717724331644066e-05
1.1994307158785909786e-05
1.2020399949906159087e-05
1.2038221280239429432e-05
1.2047061665980620621e-05
1.2048109378632379372e-05
1.204413793353807755e-05
1.2038394939123238394e-05
1.2034646962942515411e-05
1.20369369823051017e-05
1.205741432534746492e-05
1.2095158660741041394e-05
1.213470355465544174e-05
1.2172242586016495341e-05
9.8710588569207181051e-06
9.8588278887370210489e-06
9.8488306802970510196e-06
9.8366990537726219931e-06
9.826821290764224914e-06
9.8147443180670547924e-06
9.804993866442011989e-06
9.7930911397126025009e-06
9.7833787191633170505e-06
9.7715447116310544132e-06
9.7618677911778043148e-06
9.7499241524979943577e-06
9.7402666785872532167e-06
9.7283536478636779832e-06
9.7187001055988104419e-06
9.7068532495514069108e-06
9.6974301756680756194e-06
9.6857900831459287436e-06
9.6766447967058546829e-06
9.6640570110521352535e-06
1.2658659570033618008e-05
1.2617034187210657194e-05
1.2580984664661463033e-05
1.2550968226155750221e-05
1.2527074718791570787e-05
1.2508529307273358154e-05
1.2494492963681871228e-05
1.2483776743363952943e-05
1.2474552321722943586e-05
1.2466318010988091332e-05
1.2461014466416638947e-05
1.2467590142736564491e-05
1.2486733105902430958e-05
1.2499868529811159447e-05
1.2508650401068176997e-05
1.2516568196343282952e-05
1.2527975101603098837e-05
1.2544815899264437668e-05
1.2568035266408199169e-05
1.2595614511503637283e-05
1.262433103062655842e-05
1.2651404553626482093e-05
1.2673494968121203042e-05
1.2689715178540754756e-05
1.2700063026597743622e-05
1.2706697735882546257e-05
1.2712537668964006183e-05
1.2720416936570778899e-05
1.2732699814592001957e-05
1.2749768837402289642e-05
1.277113224378381694e-05
1.2794625788181348294e-05
1.2817767550270506473e-05
1.0372794146279613802e-05
1.0362223856746424709e-05
1.0349207972727786446e-05
1.0338716536454009299e-05
1.0325757114761276325e-05
1.031534906871389785e-05
1.0302508769354711967e-05
1.0292138364398173181e-05
1.0279321068157555509e-05
1.0268912718016741422e-05
1.0255930828191400593e-05
1.0245575256714214608e-05
1.0232683126115304343e-05
1.0222377351154663405e-05
1.0209606517161208447e-05
1.0199517315643671084e-05
1.0186882574833054714e-05
1.0177040680724523506e-05
1.0163206382226857465e-05
1.3237896913338206755e-05
1.3205039415890994941e-05
1.3180711173368314114e-05
1.3162856344000513974e-05
1.31500211074804751e-05
1.3139881403427527764e-05
1.3130937046110419908e-05
1.312291169789361779e-05
1.3119368973775472339e-05
1.3131008479143023302e-05
1.315063048114893535e-05
1.3164022449827200617e-05
1.3172419472809418533e-05
1.3178318247254067015e-05
1.3184749200634405562e-05
1.3195253386175573624e-05
1.3211372944599980911e-05
1.3234244173874273e-05
1.3262600605129799594e-05
1.3293534887858167085e-05
1.3323741203911516377e-05
1.3350128663731422043e-05
1.3370504864740280536e-05
1.3384262718781827909e-05
1.3392329596687536515e-05
1.3396786486899102286e-05
1.3400453090176223241e-05
1.3405971494852554109e-05
1.3415136893717586404e-05
1.3428363321095352487e-05
1.3445380354805508576e-05
1.3464707153639329484e-05
1.0913169783211185796e-05
1.090201579941352509e-05
1.0888071331692349768e-05
1.0876902207040874482e-05
1.0863014584063759955e-05
1.0851893759694871249e-05
1.0838036692671338773e-05
1.0826936550462522627e-05
1.0813017091469661045e-05
1.0801825334502301827e-05
1.0787783748819348726e-05
1.0776682493167747681e-05
1.076276741272562565e-05
1.075176925729221524e-05
1.0738006432311634407e-05
1.0727232798119568167e-05
1.0713583315181973111e-05
1.070304783403909347e-05
1.0687986395935818813e-05
1.3943585036024557319e-05
1.3921907082785256847e-05
1.3905246554148868976e-05
1.3892179969281380348e-05
1.3881139848948691816e-05
1.3870758174116205652e-05
1.3860221066704768529e-05
1.3849262329272249672e-05
1.3837718790741484448e-05
1.3826014531872632548e-05
1.3815436327198126154e-05
1.3805773623891843269e-05
1.379717253533237045e-05
1.3790979231267631405e-05
1.3791569006089249137e-05
1.3812446714501524752e-05
1.3855389220320663601e-05
1.3902090444529686882e-05
1.3950600691308804457e-05
1.3997168570197341441e-05
1.4037725157398238434e-05
1.4069549499557999704e-05
1.4091665882208985705e-05
1.4104198264977971586e-05
1.4109792280317899876e-05
1.4111132127210452593e-05
1.411189533342198954e-05
1.4114438620688129391e-05
1.4120748243244890725e-05
1.4131305336917985085e-05
1.1470549450368958377e-05
1.1455687252651797136e-05
1.1443846781054392851e-05
1.1429060278898141737e-05
1.1417197607518707767e-05
1.1402329681684165945e-05
1.1390477245117349616e-05
1.1375481556922032827e-05
1.1363516069378965374e-05
1.1348447809664940079e-05
1.1336621337831393136e-05
1.1321693598802694397e-05
1.1310001900284146346e-05
1.1295225357109724067e-05
1.128378740629187201e-05
1.1269141970392939237e-05
1.1257936222195457648e-05
1.1241765074012546917e-05
1.4648135474290374886e-05
1.4619373464385415702e-05
1.4595352505076967373e-05
1.4574462499540384559e-05
1.4556019334753168243e-05
1.4539072944265124234e-05
1.4523587092146109299e-05
1.4509383352545048877e-05
1.4497223621172089893e-05
1.448643763240572883e-05
1.4477081050203582179e-05
1.4471414102211330237e-05
1.4476341435545404788e-05
1.4506762447242687225e-05
1.4547259120851448931e-05
1.4590001708829312084e-05
1.4635856917140279898e-05
1.4683872164800693851e-05
1.4730804652127932463e-05
1.4772086651335549935e-05
1.4804074336365021577e-05
1.4824573550974814954e-05
1.4833778210006294844e-05
1.4833599959762939634e-05
1.4829002498913824231e-05
1.4824128677548443486e-05
1.4823866872564416767e-05
1.4830712381219632323e-05
1.2085496710680685716e-05
1.2070245735689575091e-05
1.2057702699374479543e-05
1.2042499107105485823e-05
1.202989700001561752e-05
1.2014593278836657316e-05
1.2001967486044578956e-05
1.1986425455781982334e-05
1.1973764665034069855e-05
1.1958141859470164511e-05
1.1945624648432928781e-05
1.1929995913973255275e-05
1.1917687286368233268e-05
1.1902226572172211523e-05
1.1890201714942825776e-05
1.187485151366906475e-05
1.1863104055958568515e-05
1.1847115435189090597e-05
1.5380880435016591528e-05
1.5362218969470227534e-05
1.5345548557682804836e-05
1.5330374164432053388e-05
1.5315777701981465831e-05
1.5302406827847797507e-05
1.5289992406246910865e-05
1.5278478422277172254e-05
1.5268614186671987046e-05
1.5263989748827172955e-05
1.5272702456235427644e-05
1.5287324298031690882e-05
1.5304106361665874866e-05
1.5326256527741098423e-05
1.5355268606118112828e-05
1.5391119318252495328e-05
1.543147749324281297e-05
1.5472647975308480886e-05
1.5510225427644628682e-05
1.5540978110891258602e-05
1.5563071693258931019e-05
1.5576572173019062302e-05
1.5583450472046532471e-05
1.5587269881778957907e-05
1.559155956213557651e-05
1.559964617884669849e-05
1.5612768285243017018e-05
1.2643954436129670451e-05
1.2626532654006020093e-05
1.2611565369424809614e-05
1.2593995021800500004e-05
1.2578897852284335625e-05
1.2561458653638342422e-05
1.25459810716467811e-05
1.2528330174956070177e-05
1.2512675573001437286e-05
1.2494851707411526562e-05
1.2479132294703002749e-05
1.2461358525038562054e-05
1.244590572771017005e-05
1.2428116181145564096e-05
1.2412909265588695763e-05
1.2395308633929357788e-05
1.2380210205089032616e-05
1.5968235782942022876e-05
1.5970387864625628315e-05
1.5967180107951337573e-05
1.595975644935377258e-05
1.5949707923640460237e-05
1.5938514785445718591e-05
1.5926740493649782423e-05
1.5915893464474919892e-05
1.5908502484968907789e-05
1.5910884073188183327e-05
1.5913460253353903814e-05
1.5912707126412843791e-05
1.5911198376449762055e-05
1.5912760315449328601e-05
1.5919364058863081106e-05
1.5933834927472135298e-05
1.5955625142931526288e-05
1.5983956210440532469e-05
1.6016609209657215346e-05
1.6050442769497854755e-05
1.6083866117553641999e-05
1.6116006306918908089e-05
1.6148015886199469106e-05
1.6180658316729933105e-05
1.6215780753541279239e-05
1.6253356399081940291e-05
1.6291607871279378014e-05
1.2948755368706529133e-05
1.2932786766846627785e-05
1.2910134312687672402e-05
1.2894170982881701285e-05
1.287130206504763299e-05
1.2855161716820268195e-05
1.2831888991291914975e-05
1.2815456454225301617e-05
1.2791766100549860255e-05
1.2775119415829684551e-05
1.2751193332228104221e-05
1.2734553821839495307e-05
1.2710568301117418255e-05
1.2694039693514462213e-05
1.2666023989664008644e-05
1.2659074753108927439e-05
1.2428679785091170337e-05
1.2450004596857475555e-05
1.246052521071445041e-05
1.24616327223142155e-05
1.2456974064477255903e-05
1.2451135663292684167e-05
1.2447701137738184608e-05
1.2451667255105779223e-05
1.2458634407250285963e-05
1.2462884071060572236e-05
1.2462626000212745231e-05
1.2457291369856115327e-05
1.2448746309140792211e-05
1.2439348293866420064e-05
1.242929257935940034e-05
1.242018090784684193e-05
1.2412021824625114012e-05
1.240677468868533185e-05
1.2411082277538606691e-05
1.2440802533628222466e-05
1.2482007943882874937e-05
1.2522013750031554344e-05
1.256132023189607502e-05
1.2601366363529005341e-05
1.2640878421581355063e-05
1.2680720157178935442e-05
1.2718359329538560723e-05
1.2751927576754272587e-05
1.0080072159881013126e-05
1.0060897568768245502e-05
1.0047391499260660319e-05
1.0028174661726045578e-05
1.001473838371683638e-05
9.9954187641248305626e-06
9.9818771337915260781e-06
9.9623790353901992554e-06
9.9487734372467148978e-06
9.9291063993460828023e-06
9.9156339708597881702e-06
9.8959306967152447349e-06
9.8826855929353468115e-06
9.8601596261903841318e-06
9.8570005965275362146e-06
1.1776984261060728494e-05
1.1770521081558453827e-05
1.1765297334744631428e-05
1.176348071006448273e-05
1.1772415390155769639e-05
1.1795455239675020802e-05
1.1817300069581333598e-05
1.1834042780160225044e-05
1.1843320799211274927e-05
1.1845074388203717509e-05
1.1841535058320297834e-05
1.1836019038558086796e-05
1.1832341659381165477e-05
1.183469338984049132e-05
1.1847922902868311218e-05
1.1869718962637144119e-05
1.1897635606224460353e-05
1.1927910774194377209e-05
1.1956395114660343766e-05
1.1979119403516040826e-05
1.1994898154794346652e-05
1.2003514313225080448e-05
1.2007903172375813182e-05
1.2011353100644366353e-05
1.2017625345892353307e-05
1.2029985380409934223e-05
1.2048882914988452318e-05
9.5779580809097548982e-06
9.5665750039653601447e-06
9.5508784963675972976e-06
9.5395745922918658e-06
9.5239372769603461563e-06
9.5126989060895979244e-06
9.4970350717810699779e-06
9.4857401810803491666e-06
9.469820583071089114e-06
9.4584581722393364051e-06
9.4424347635325080224e-06
9.4311405000957326811e-06
9.4134976134710022822e-06
9.4058337715288039519e-06
1.1366893632988301258e-05
1.1365031408247409044e-05
1.1359892833070580728e-05
1.1353617021967290276e-05
1.1348343861982381205e-05
1.1346937894849655544e-05
1.1355771511467305823e-05
1.1365920814450620896e-05
1.137116502352185566e-05
1.1372016447918211428e-05
1.1371376218518744158e-05
1.1372927634167688876e-05
1.138055489352270964e-05
1.1395219303906011857e-05
1.1415832421746055408e-05
1.1438880407493320931e-05
1.1460236442998157852e-05
1.1476848407610271895e-05
1.1486841567173185609e-05
1.1491295625136365636e-05
1.1492238725906041952e-05
1.1493706971487623045e-05
1.1499461142449014328e-05
1.1512549704532712769e-05
1.1534608838958697029e-05
1.1564055824469715987e-05
9.216111258104237272e-06
9.2010999259696480898e-06
9.1903197468667825471e-06
9.1754278468121519861e-06
9.1647579150394368195e-06
9.1498911982290901144e-06
9.1391902753478646514e-06
9.1240826787774793394e-06
9.113278881804348839e-06
9.097991353617543181e-06
9.0871682774245058267e-06
9.0705617356495317851e-06
9.0625223801225812588e-06
1.0970862429983939141e-05
1.0960568900277069542e-05
1.0948434242629873588e-05
1.0936993609870743584e-05
1.0926784111492698524e-05
1.0917991766231018391e-05
1.0910353218051345542e-05
1.0903429619906285922e-05
1.0898865622776682599e-05
1.090278598557909135e-05
1.0926059308861204309e-05
1.0955336521795124843e-05
1.0984200183742700655e-05
1.1011008047080004147e-05
1.1033252316760534074e-05
1.1049222694264378012e-05
1.105877898156196548e-05
1.1062498775851782121e-05
1.1063160189575524709e-05
1.1063465931091933793e-05
1.1067135237340617481e-05
1.1076635976110896117e-05
1.109356938801413136e-05
1.1117935500308649829e-05
1.114753654540234944e-05
8.8508934227694916326e-06
8.8404415587866541848e-06
8.8260325747473275022e-06
8.8157614702599507465e-06
8.8014460340273388767e-06
8.7912056093747673096e-06
8.7767242727538865638e-06
8.7663755398393519833e-06
8.7516884925869182024e-06
8.7412452905732566715e-06
8.7251329510144964413e-06
8.71736117703538041e-06
1.0540892254889805798e-05
1.0534414928341279989e-05
1.0527510996661416768e-05
1.0521103841518286552e-05
1.0516409920326649999e-05
1.0517768910528275389e-05
1.0537409762753649842e-05
1.0561123727154663745e-05
1.0574442514573601168e-05
1.0579295338689722312e-05
1.057974642911108951e-05
1.058033262846942432e-05
1.0583786716400431316e-05
1.0591267398201458563e-05
1.0601269431301532938e-05
1.0612021934787927354e-05
1.0621058572845794489e-05
1.062806373816814568e-05
1.0633478690940916718e-05
1.0639537710951317258e-05
1.0648998263581447644e-05
1.0663538809248387451e-05
1.0684942755792050506e-05
1.0712215734911988743e-05
1.0129648836500226408e-05
1.0123781515292258899e-05
1.0119153599442453121e-05
1.0118162294974484064e-05
1.0129342300934998452e-05
1.0159141645274111763e-05
1.01840831212420834e-05
1.0200690319661152145e-05
1.0209969368227245733e-05
1.0214526630416242609e-05
1.0217193267734187424e-05
1.0220095066257968422e-05
1.0224538620852294734e-05
1.0230177080393339846e-05
1.0236593008775144844e-05
1.0242361791732328133e-05
1.0247820816384122319e-05
1.0253219070119585249e-05
1.0260551093263566166e-05
1.0271588575460180085e-05
1.0287458829143981856e-05
1.0309307812795296687e-05
1.0335830152336421479e-05
9.7555259934952116477e-06
9.7518924401939140764e-06
9.7553167316827926563e-06
9.7673512834560690722e-06
9.7773478146695875753e-06
9.7853480638201893141e-06
9.7930668789576289944e-06
9.8019478015581000411e-06
9.8131107357054113568e-06
9.826302643643804123e-06
9.8403985851952064718e-06
9.8536768239101721442e-06
9.8648752957808026419e-06
9.8733141555797480779e-06
9.8794925939886819974e-06
9.8847232028029521699e-06
9.8909348026396134941e-06
9.8999707949262091562e-06
9.9133027124532211908e-06
9.9313569643261183367e-06
9.9527857321314825318e-06
9.4010799330018139479e-06
9.4002682191942877964e-06
9.4013987392487457064e-06
9.4075850025393744378e-06
9.4212227533130485076e-06
9.4425665219831494686e-06
9.4700279790084812597e-06
9.5000119889346851509e-06
9.528385885619589831e-06
9.5512609440323500152e-06
9.5664182229681195209e-06
9.5735446207429668824e-06
9.5743131151794128004e-06
9.5718487947382139473e-06
9.5695590924138154888e-06
9.5710373184327783406e-06
9.5778776220938586123e-06
9.0587941111173317572e-06
9.084594057685308266e-06
9.1149029245033380911e-06
9.147150753496026556e-06
9.1780378958169768055e-06
9.204541744961501344e-06
9.2250186936651518117e-06
9.2388995334490829636e-06
9.2475885003968988704e-06
9.2528124218231311689e-06
9.2572102871558928242e-06
9.2629937703681528466e-06
9.2711931911663435392e-06
8.7749767068865849846e-06
8.7903223274548479359e-06
8.8068013425935694595e-06
8.8220676249674201196e-06
8.8346191357626563287e-06
8.8440363500988600567e-06
8.8506605990833325104e-06
8.8564803150571278097e-06
8.8633398883059933782e-06
8.87326504926358308e-06
8.8871605217061311907e-06
8.9041475827425269009e-06
4.8214904661385265806e-06
4.7547555822092499694e-06
4.7066683981851403364e-06
4.6735859732299028137e-06
4.653645808855249112e-06
4.6456779548781932935e-06
4.6435630259201987196e-06
4.6504805751658695231e-06
4.6913456521303874755e-06
4.848550346463707049e-06
5.139339364000682851e-06
5.3538063904615888932e-06
5.4834788320258713202e-06
5.5459352597443494954e-06
5.5654299367593526159e-06
5.5644304098230603457e-06
5.5571155510411216448e-06
5.5347759774038919164e-06
5.4628852129555293633e-06
5.30980461841098207e-06
7.1051738277908875748e-06
6.9543711882572252218e-06
6.847055992016814956e-06
6.7711655579976395998e-06
6.7231556442706895939e-06
6.6972534493034904598e-06
6.6903736712220118114e-06
6.6901836786703115908e-06
6.7068731483520596163e-06
6.7770748306587547287e-06
7.0110650905264029021e-06
7.3147639803786703472e-06
7.5216824330979886184e-06
7.6380354790181256846e-06
7.6873227617517239006e-06
7.695522239229517282e-06
7.6892126467779586075e-06
7.6749898630260864621e-06
7.638748062920661588e-06
7.5354856234266650452e-06
7.3487932096997924522e-06
7.1596134679817593233e-06
1.2517370189210967919e-05
1.2296772985434972056e-05
1.2146375931626000031e-05
1.2060316639827936878e-05
1.2020082798202513696e-05
1.2011029406159601352e-05
1.2011089352691297887e-05
1.2024962097404550668e-05
1.2062920685205124824e-05
1.216515595401808257e-05
1.2403240153432780859e-05
1.262926163707363004e-05
1.278934170352784115e-05
1.2878319637542780393e-05
1.2904478347632353488e-05
1.2899182461241360241e-05
1.2882421752202248411e-05
1.2847712734528391503e-05
1.2775987091293994149e-05
1.2649717318120458801e-05
1.2500111939976618164e-05
1.2333083981849044588e-05
1.215825015733510789e-05
1.19950761990988084e-05
1.1867835824175196528e-05
1.1794097505923210886e-05
2.7561465362140714848e-05
2.7504934420696254939e-05
2.7486355649242854839e-05
2.7491401044300800766e-05
2.7545825337053354267e-05
2.7633522069708371226e-05
2.7761560288862954023e-05
2.7955033891915186302e-05
2.822882774364650826e-05
2.8549701511424004031e-05
2.8854970147698265261e-05
2.9085953062303600378e-05
2.9218425867266138154e-05
2.9248801793764101918e-05
2.9233979526764291825e-05
2.9193945291476181795e-05
2.9080808932334534917e-05
2.8869007385755351866e-05
2.8685573338268317915e-05
2.8541862532074250365e-05
2.8425103519556702795e-05
2.832963127233705276e-05
2.8257916581526071846e-05
2.820800607388856241e-05
2.8178853809396044806e-05
2.8161798311080635628e-05
2.8170034252815779778e-05
2.8257325985672457114e-05
5.9301772708372547948e-05
5.9251093768598679017e-05
5.9232484489424543008e-05
5.929912004029016994e-05
5.9432817004792848933e-05
5.9553897254564765542e-05
5.9680524349728544776e-05
5.9822112660828905581e-05
5.996513219580014328e-05
6.00858057085885226e-05
6.0165445358556102087e-05
6.0180883289135257523e-05
6.0154820348130578741e-05
6.0105906688438787274e-05
6.0009247285035256889e-05
5.980524174330708833e-05
5.9581769577384061922e-05
5.9381581917717842108e-05
5.9209229625452477292e-05
5.9060730110815745609e-05
5.8930752074659601889e-05
5.8823406707855093129e-05
5.8742142087853196247e-05
5.8682057578826822932e-05
5.8638534347155319164e-05
5.8611263993612220204e-05
5.8644088384529217744e-05
5.8785831375520185456e-05
5.8918430319222977467e-05
5.9016791586445479449e-05
9.0108031097000597007e-05
8.9965418714560619782e-05
8.9818013770440503101e-05
8.9660233830723439137e-05
8.9494111592150973216e-05
8.9325826452672291893e-05
8.9160493976100211352e-05
8.8996877573523805005e-05
8.8825681506122345721e-05
8.8634373450996017246e-05
8.841428399546504089e-05
8.8165644360878274032e-05
8.789898049066422294e-05
8.7630473696206974302e-05
8.7374555852374728867e-05
8.7139893507260726972e-05
8.6927899427863828449e-05
8.6734515258836818066e-05
8.6553821093757096457e-05
8.6382053795020386638e-05
8.6217386377954863394e-05
8.6060486924845387181e-05
8.5911217026883604183e-05
8.5767593431554731013e-05
8.5625977573653802338e-05
8.5481440794804591397e-05
8.5329809535488010766e-05
8.5166127959396270434e-05
8.4984523343930730541e-05
8.4781731620894808157e-05
8.4558121187968432356e-05
8.4320429613166539913e-05
0.00010691030069185816331
0.00010663177379854560053
0.00010635662962454478519
0.00010608176644484804802
0.00010580546645711262155
0.00010552930457799391466
0.00010525643133822601112
0.0001049892883129050652
0.00010472732598852121325
0.00010446797194379680933
0.00010420810507499861765
0.00010394759396536693453
0.00010369026921948735229
0.00010344084233574604779
0.00010320187976050476534
0.0001029719300424311308
0.00010274709201503828631
0.00010252364241792765907
0.00010230080389126073497
0.00010208062386018879465
0.00010186660023199665059
0.00010165951714972237504
0.00010145704492830815888
0.00010125545828071284946
0.00010105132916122081422
0.00010084349854101197692
0.00010063258457290698907
0.00010042074022359783467
0.00010020964337161374492
0.00010000058160030728018
9.9793810921127121022e-05
9.9591328226081976939e-05
9.9394545252200151766e-05
0.00014163936948785458203
0.00014081975733700423381
0.00014001697137558093294
0.00013922921957932238085
0.00013845509759490703819
0.00013769925087059558914
0.0001151566417648052453
0.0001149002864362563066
0.00011464511474382515675
0.00011438614846787387169
0.00011412255034269665611
0.00011385775028268651523
0.0001135978153340831703
0.00011334727649931821694
0.00011310631610849453458
0.00011287066608308988364
0.00011263585430829773715
0.00011240048121382148407
0.00011216739756786697259
0.00011194117082428825874
0.00011172453770048267985
0.00011151584867010635028
0.00011131019851487272915
0.00011110369015931375561
0.00011089646280772991432
0.00011069226634659792429
0.00011049398462397730933
0.00011030267660411544257
0.00011011540503024327053
0.00010992787041425214182
0.00010973742504348602683
0.00010954419262519625032
0.00010935047719327225754
0.00010915815748479077969
0.00010896758523634246247
0.00010877837126142642186
0.00010859113021462805211
0.00010840718798287851134
0.0001082297129778173934
0.00010805847616913340768
0.00013488978983750200434
0.00013411629300363580035
0.00013334338483145523639
0.00013257634770442205713
0.00013181988142795976059
0.0001310859229236258658
0.00013038824407697539973
0.00010873145046302521138
0.0001084749900435190282
0.00010821108603321806377
0.00010794430789382092122
0.00010768673401741332349
0.00010745105249345501569
0.00010724282649803526816
0.00010705768881315559052
0.00010688428975617984005
0.00010671165245620560166
0.00010653644095682460039
0.00010636409722232628618
0.00010620285915004621529
0.00010605565705231349079
0.00010591663611884860239
0.00010577605679459411818
0.00010562727997487170661
0.00010547217814848127348
0.000105318261088330843
0.00010517126259964163003
0.00010502937883037268419
0.00010488406954853155993
0.00010472611948062281022
0.00010455155914512924095
0.00010436401856050474203
0.00010417145739412717411
0.00010398119129010698384
0.00010379671286929085345
0.00010361853493911720955
0.00010344623823112194833
0.00010328065010632631645
0.00010312285221093484314
0.00010297133587563818869
0.00010282025637569424206
0.00010266128095440863507
8.5103974440493016243e-08
8.5180224752341391394e-08
8.5229987142310517021e-08
8.5305616309370822901e-08
8.5395625575657919776e-08
8.5477181815321118793e-08
8.5573621091318010714e-08
8.5700447359672807821e-08
8.5822958893109561096e-08
8.597480037745282649e-08
8.6195889529791137297e-08
1.231321183894149837e-06
1.175131643348905675e-06
1.1145886454631568595e-06
1.0514296819853055635e-06
9.8820856186459569955e-07
9.275721390492097197e-07
8.7151399521599592901e-07
8.2107958999322430489e-07
7.7655423742903268901e-07
7.3790128695843754246e-07
7.0489676181800599713e-07
6.7725463984389114254e-07
6.5453028616093054622e-07
6.3616464894249093942e-07
6.2151366958185279869e-07
6.1002220366676469866e-07
6.0114805428801395424e-07
5.9454266568624021427e-07
5.8987396318229086381e-07
5.8660484762956436339e-07
5.842506964271311246e-07
5.8247014868810082815e-07
5.8103228343087912754e-07
5.7987613869486304969e-07
5.7896051143398272204e-07
5.7829454532528409906e-07
5.7780765096229317636e-07
5.7746715581193894131e-07
5.7744131562677570768e-07
5.7829491858575327148e-07
5.7931307494362180617e-07
5.799374444719070783e-07
5.8025670806640733546e-07
5.8032652665122694171e-07
5.8021892600164674981e-07
5.7999784295055748533e-07
9.007161940472419582e-08
8.9900567831784233064e-08
8.974188175754292603e-08
8.9601789015524459045e-08
8.9482500588363108252e-08
8.9401601483036913668e-08
8.9342822847934902553e-08
8.9300889902155900385e-08
8.9281963142871617896e-08
8.9278623700797153043e-08
8.9278013703437563954e-08
8.9323511818539234663e-08
8.935316172440064989e-08
8.9407958973336116634e-08
8.9442872455474022033e-08
8.9500448059210684683e-08
8.9534681200042429391e-08
8.9639812393846954548e-08
8.9765014017343735395e-08
8.9903744689684222551e-08
9.0138871367929677646e-08
1.2904261047865840147e-06
1.2253293553426665607e-06
1.1606035698715885178e-06