/*--------------------------------*- C++ -*----------------------------------*\
  =========                 |
  \\      /  F ield         | OpenFOAM: The Open Source CFD Toolbox
   \\    /   O peration     | Website:  https://openfoam.org
    \\  /    A nd           | Version:  12
     \\/     M anipulation  |
\*---------------------------------------------------------------------------*/
FoamFile
{
    format      ascii;
    class       volScalarField;
    location    "0.0074";
    object      pMean;
}
// * * * * * * * * * * * * * * * * * * * * * * * * * * * * * * * * * * * * * //

dimensions      [1 -1 -2 0 0 0 0];

internalField   nonuniform List<scalar> 
106891
(
98864.780833219032502
98865.36104745886405
98865.97402424683969
98866.621703811921179
98867.305907270652824
98868.027967875794275
98868.789025590391248
98869.589304731227458
98870.428431195934536
98871.304046268080128
98872.207614349463256
98842.254550023048068
98842.244957165516098
98842.234962274393183
98842.224179979937617
98842.213509365334176
98842.204279371639132
98842.197509919729782
98842.19284416573646
98842.188547046374879
98842.182189287210349
98842.172626385960029
98842.161349323767354
98842.151914767237031
98842.14828173625574
98842.152681136227329
98842.164056653506123
98842.178551912191324
98842.191438853173167
98842.199419195691007
98842.201737001902075
98842.199693420247058
98842.194722793778055
98842.187287405191455
98842.17700530224829
98842.163748179606046
98842.148715122471913
98842.134470879958826
98842.12428297920269
98842.120542286109412
98842.123687500017695
98842.132568548418931
98842.145292432425776
98842.160174173026462
98842.175943719179486
98842.191759715016815
98842.207242926364415
98842.222574968953268
98842.238624438468833
98863.613401560069178
98864.028546898014611
98864.464715608104598
98864.922712933999719
98865.403187871328555
98865.906786434250535
98866.43427021097159
98866.986618599243229
98867.565074077632744
98868.171228739491198
98868.806971422192873
98869.474387738388032
98870.175446368171833
98870.911934680319973
98871.685102419723989
98872.495853457206977
98873.344161034605349
98874.229335573356366
98875.148871441691881
98876.094682947950787
98842.323359547372092
98842.314888636115938
98842.308727425421239
98842.304751484480221
98842.30267113474838
98842.30186486763705
98842.301032140283496
98842.29802221468708
98842.291024725709576
98842.279904032169725
98842.266976848201011
98842.256427834377973
98842.252320103900274
98842.256613507692236
98842.26801101770252
98842.28223363860161
98842.294256592897
98842.300736281758873
98842.301125109486748
98842.296964134467999
98842.289934087835718
98842.280461393937003
98842.268096028419677
98842.2522874592687
98842.233673833412468
98842.214603246058687
98842.19846383620461
98842.188280802060035
98842.185230454721022
98842.188813733373536
98842.197359511963441
98842.20899991360784
98842.222107167370268
98842.235179646624601
98842.247183815939934
98842.258023213973502
98866.4894046534464
98866.961138084632694
98867.453670210277778
98867.967775028810138
98868.504094378164154
98869.06318808310607
98869.645626609475585
98870.25217581463221
98870.883916788632632
98871.542296491359593
98872.229047554530553
98872.946098170985351
98873.695318664700608
98874.478389088602853
98875.296477696872898
98876.150355994846905
98877.039945539348992
98877.964503381954273
98878.921609888406238
98879.903686799501884
98842.402303368871799
98842.39456601801794
98842.392975058945012
98842.39589022337168
98842.4009124685399
98842.405229133160901
98842.406723709107609
98842.403731918238918
98842.395436781225726
98842.383008524629986
98842.369403334334493
98842.358879632287426
98842.35523524171731
98842.359835309252958
98842.370764374223654
98842.383547629811801
98842.393299514384125
98842.397056917718146
98842.394539431857993
98842.387361680157483
98842.377445394158713
98842.365586152052856
98842.351211026121746
98842.333437269495334
98842.312329330481589
98842.28973204245267
98842.268670289369766
98842.252343610583921
98842.242804477558821
98842.240120025424403
98842.243064807378687
98842.249707275637775
98842.258125056599965
98842.26661024162604
98842.273765977923176
98842.279099785810104
98869.897933211919735
98870.443512210156769
98871.010051815042971
98871.598179964712472
98872.208440421964042
98872.841383008737466
98873.497697729311767
98874.178309145325329
98874.884469994809479
98875.617728182231076
98876.379821920534596
98877.172434794731089
98877.997018582886085
98878.854585768422112
98879.745795290742535
98880.67059440711455
98881.62827961613948
98882.616682461506571
98883.62888381369703
98842.453281016394612
98842.456737372325733
98842.467102860304294
98842.479135267305537
98842.487913115954143
98842.490310008448432
98842.485566502960864
98842.474885827046819
98842.461132875352632
98842.448488959853421
98842.440939538995735
98842.440686919027939
98842.447389640365145
98842.458281379702385
98842.469068578138831
98842.475727684985031
98842.475982271294924
98842.469918461254565
98842.459408792026807
98842.44634679533192
98842.431522554019466
98842.414498975063907
98842.394575549595174
98842.371434997316101
98842.346146308162133
98842.32124599670351
98842.299745829950552
98842.283871540275868
98842.274319532967638
98842.270466355563258
98842.270621145900805
98842.272913436332601
98842.275697975914227
98842.27750086344895
98872.253387144563021
98872.829659055831144
98873.425104491281672
98874.04042995054624
98874.676298437421792
98875.333329801811487
98876.0121366292733
98876.713413135526935
98877.438062015033211
98878.187252943112981
98878.962365866173059
98879.764889429905452
98880.596272741036955
98881.457753046968719
98882.350201433699112
98883.27413841393718
98884.229474232066423
98885.215507445100229
98886.230330923368456
98887.267673120193649
98842.509168621210847
98842.51581742358394
98842.531032368526212
98842.547355125658214
98842.55820611010131
98842.559891623372096
98842.552365343959536
98842.538602993226959
98842.523477011796786
98842.512001693117782
98842.507400196045637
98842.510254923327011
98842.518546401159256
98842.52844796483987
98842.535769555222942
98842.537552464054897
98842.532815677870531
98842.522422457768698
98842.508199271032936
98842.491992043724167
98842.474417115023243
98842.455310861958424
98842.434250040067127
98842.41066114421119
98842.384599961616914
98842.357536179319141
98842.331881484904443
98842.309995275209076
98842.293393575761002
98842.282196893895161
98842.275569414239726
98842.271872928962694
98842.269177510752343
98875.748512484569801
98876.39047979703173
98877.05097679606115
98877.730658678832697
98878.430240039160708
98879.150499536088319
98879.892326065877569
98880.656710179988295
98881.44472838495858
98882.257523203006713
98883.096294453935116
98883.96224586070457
98884.856421087330091
98885.779576346583781
98886.732083097260329
98887.713805935098208
98888.724063321307767
98889.761275166762061
98890.81984856420604
98842.555025115449098
98842.570182961193495
98842.585755610940396
98842.594522878483986
98842.592727195631596
98842.58109835027426
98842.564150469566812
98842.547827667061938
98842.537313740394893
98842.535144080553437
98842.540492122556316
98842.550030107333441
98842.559293795289705
98842.564369398460258
98842.563124839114607
98842.55524631809385
98842.541648303667898
98842.52398741239449
98842.504281594825443
98842.484093257022323
98842.463879314003862
98842.442860748429666
98842.419643497589277
98842.393363788214629
98842.364569087323616
98842.335356190014863
98842.30846678664966
98842.286093144255574
98842.269096924355836
98842.25679558973934
98842.247639726963826
98842.240238581915037
98878.641985952359391
98879.326628503360553
98880.028543562817504
98880.748322134706541
98881.486707261763513
98882.244584874410066
98883.022935064363992
98883.822811120349797
98884.645348632024252
98885.491738705095486
98886.363093921521795
98887.260355492369854
98888.184230431026663
98889.135151822381886
98890.113250735172187
98891.118395357276313
98892.149912939334172
98893.206488578318385
98894.283051096790587
98842.592347685451386
98842.600581762075308
98842.601756482690689
98842.593170415944769
98842.576264455885394
98842.555563884918229
98842.536698510884889
98842.524496691898094
98842.521293041470926
98842.52618388805422
98842.535602961084805
98842.544640251217061
98842.549120398631203
98842.547032380622113
98842.538340079598129
98842.524185490241507
98842.506368683913024
98842.486489949456882
98842.465650836427812
98842.444252347078873
98842.421846371915308
98842.397616624992224
98842.370660255124676
98842.341085437801667
98842.310559764518985
98842.28165160692879
98842.256681719372864
98842.23675257852301
98842.221546654443955
98842.210118922943366
98882.225206834424171
98882.964850516116712
98883.721497996317339
98884.495676854567137
98885.288106216758024
98886.099725335545372
98886.931652686980669
98887.785095044135232
98888.66125840593304
98889.561256963293999
98890.486044179138844
98891.436206373691675
98892.411984736012528
98893.413178070768481
98894.439353769979789
98895.489494201436173
98896.562406708457274
98897.653467584677855
98842.573742209293414
98842.562277910255943
98842.543289439636283
98842.518562334240414
98842.491941524713184
98842.468163672994706
98842.451330638941727
98842.443606973509304
98842.444532922570943
98842.451197316870093
98842.459427976282313
98842.465406523246202
98842.466839774468099
98842.463192201743368
98842.454830148548353
98842.442501237848774
98842.427086811119807
98842.409207377888379
98842.389102990317042
98842.366575781299616
98842.341038671715069
98842.312318012001924
98842.281394809106132
98842.250359358164133
98842.221531650415272
98842.196810822337284
98842.177196816905052
98842.162662624687073
98885.074270754048484
98885.847507834827411
98886.637378743194859
98887.444177658806439
98888.268359522349783
98889.110601191860042
98889.971849538822426
98890.853282444732031
98891.756179468866321
98892.681711518162047
98893.630805816559587
98894.604000786624965
98895.60146082220308
98896.62278661725577
98897.667340209911345
98898.733744562065112
98899.820670089204214
98900.923406439396786
98842.489991218404612
98842.461090340904775
98842.429181621802854
98842.397058789851144
98842.367976792302215
98842.344863192120101
98842.329737845182535
98842.323108403623337
98842.323813994968077
98842.329058161412831
98842.335475296640652
98842.34040242699848
98842.342212491697865
98842.340314538989333
98842.334644037284306
98842.325156039034482
98842.311718790631858
98842.294190338798217
98842.272519161691889
98842.246998602495296
98842.218699894670863
98842.189645157399355
98842.162139159525395
98842.138172588965972
98842.119236890939646
98842.105850764535717
98842.097764435922727
98888.678831056546187
98889.499102927657077
98890.335988819075283
98891.18934542639181
98892.059364090338931
98892.946684179769363
98893.852340163255576
98894.77765313416603
98895.723957860653172
98896.692389662508504
98897.683593408277375
98898.697757399568218
98899.734443536348408
98900.792970092006726
98901.871780905523337
98902.969545119689428
98904.081645234458847
98842.406362223919132
98842.372509630964487
98842.337020791863324
98842.299879978614626
98842.262292627448915
98842.226484759448795
98842.194892199433525
98842.169697844670736
98842.152396216173656
98842.14306981228583
98842.140633963601431
98842.143597542977659
98842.150210739899194
98842.158311543535092
98842.16569138050545
98842.170275878423126
98842.170375550020253
98842.164776179139153
98842.152993881783914
98842.135551489016507
98842.113793655560585
98842.089749287377344
98842.065918930718908
98842.044934864781681
98842.028902789650601
98842.018803872473654
98842.014701233274536
98892.290713508598856
98893.154775817150949
98894.034756560489768
98894.930447927574278
98895.842042905584094
98896.770169183873804
98897.715812687267317
98898.680148271436337
98899.664353959495202
98900.669302504480584
98901.695456771558383
98902.742549479662557
98903.809984014893416
98904.896172339344048
98905.999840989883523
98907.116677169076866
98842.291805199158262
98842.257482778906706
98842.220760007854551
98842.181336876208661
98842.140670870940085
98842.101474132345174
98842.066330544126686
98842.03658757606172
98842.012523198194685
98841.994157960478333
98841.981945263643865
98841.976579874040908
98841.977905277759419
98841.984307401056867
98841.993046574265463
98842.001013548928313
98842.005520805876586
98842.005039669587859
98841.999286691556335
98841.988853427537833
98841.974847244695411
98841.958915280454676
98841.943444488570094
98841.931094410261721
98841.924137499227072
98841.923925489914836
98841.930715266818879
98841.943936814248445
98895.498812982390518
98896.398043359266012
98897.312601498808363
98898.242309091248899
98899.187365088626393
98900.148368991052848
98901.126175315061118
98902.121721124189207
98903.135767887230031
98904.168804272747366
98905.220791256419034
98906.291518255922711
98907.379819963898626
98908.484814113617176
98909.60284938190307
98842.140041677252157
98842.105888932885136
98842.067282162752235
98842.026108751742868
98841.985815898078727
98841.949456770191318
98841.918036121554906
98841.89085943948885
98841.86727822375542
98841.847972373361699
98841.834550337778637
98841.828288275704836
98841.828916450234829
98841.834359788539587
98841.841597012185957
98841.847944147943053
98841.852006319328211
98841.853262909746263
98841.851579861511709
98841.847258793452056
98841.841067112021847
98841.834563305281335
98841.830270121485228
98841.830824450822547
98841.838034525120747
98841.852556668003672
98841.874013698237832
98898.274169142081519
98899.201974391078693
98900.144458549184492
98901.101573465333786
98902.073569260741351
98903.060917324299226
98904.064265081324265
98905.084225693295593
98906.121318543868256
98907.175678780447925
98908.247332814818947
98909.335486421914538
98910.439631214700057
98911.556680968933506
98841.991846659744624
98841.955327224204666
98841.916310070431791
98841.87872453565069
98841.844972552586114
98841.815044582195696
98841.787432675788295
98841.761115762099507
98841.736739617044805
98841.716319290440879
98841.701994706803816
98841.694707471950096
98841.693660243923659
98841.696872788888868
98841.702472588658566
98841.709429578331765
98841.717120896413689
98841.724650768228457
98841.73096171717043
98841.735462445620215
98841.738809727918124
98841.742995463049738
98841.750777218694566
98841.764422939028009
98841.785067276039626
98841.812526697394787
98900.907510163684492
98901.86030384262267
98902.827016723749693
98903.807614658639068
98904.802286779915448
98905.811420317812008
98906.835460597503697
98907.874889864207944
98908.929979194697808
98910.001053658736055
98911.087710660081939
98912.189812791286386
98913.304808100205264
98841.835473439074121
98841.800923882779898
98841.768044767100946
98841.738619394265697
98841.711845015786821
98841.68563425175671
98841.658597800036659
98841.631351713687764
98841.606201954185963
98841.585739039423061
98841.571504615960293
98841.563711348630022
98841.561787846454536
98841.565135455850395
98841.573538876036764
98841.586405576628749
98841.602117333648494
98841.618457540811505
98841.633528109290637
98841.646816881519044
98841.659516605170211
98841.674114914450911
98841.69332743519044
98841.718866120485472
98841.750699971133145
98903.407732399718952
98904.381940465260413
98905.369084291203762
98906.369048664186266
98907.382011353576672
98908.408347570410115
98909.448607058162452
98910.503264989965828
98911.572885233035777
98912.657378643038101
98913.756919861378265
98914.869414118104032
98841.688972508985898
98841.662365423544543
98841.639116065824055
98841.617646600017906
98841.595415129268076
98841.570685632090317
98841.543818912730785
98841.517165984187159
98841.493461164849577
98841.474542487398139
98841.461342487091315
98841.454556314289221
98841.454866301137372
98841.462881013590959
98841.478442353691207
98841.49983362526109
98841.524082828138489
98841.54831572069088
98841.571071111044148
98841.592634696105961
98841.614802282580058
98841.639955043647205
98841.669837917535915
98841.704645835081465
98841.5528741771559
98841.535412870245636
98841.519126302169752
98841.501391398865962
98841.480454500997439
98841.456560987411649
98841.431711551471381
98841.40821270532615
98841.387974886296433
98841.372424061613856
98841.362926106929081
98841.360911082607345
98841.367843771367916
98841.384301178914029
98841.409062063554302
98841.439048938584165
98841.470842704584356
98841.502037380676484
98841.531991045034374
98841.561594096885528
98841.592586113431025
98841.626549546243041
98841.663796452368842
98841.427118373598205
98841.414671085891314
98841.398652131887502
98841.378969838857302
98841.35748454084387
98841.336656054176274
98841.318500241439324
98841.304390255405451
98841.295500966036343
98841.293343399956939
98841.299757661501644
98841.316008880865411
98841.341646602522815
98841.374304791112081
98841.4106430481188
98841.447976726150955
98841.484983060741797
98841.521642315361532
98841.558959229107131
98841.597862394395634
98841.638212635109085
98841.285264986930997
98841.269233243074268
98841.255496476267581
98841.245355482111336
98841.23946148250252
98841.238977268716553
98841.245719647675287
98841.261408846883569
98841.286547725831042
98841.319802927653654
98841.358519996370887
98841.399986634409288
98841.442426440495183
98841.485225102107506
98841.528648759558564
98841.572899336038972
98841.617386234604055
98841.201592785451794
98841.204956782647059
98841.213572558859596
98841.229489289151388
98841.253906754922355
98841.286375400028192
98841.325092607410625
98841.36786713465699
98841.413124699189211
98841.460213106416631
98841.508792464228463
98841.558364364740555
98841.607709058807814
98841.173755372292362
98841.185766554364818
98841.203021181208896
98841.227337251111749
98841.259218976410921
98841.297769946962944
98841.341304139728891
98841.388487097850884
98841.438607099640649
98841.491174943104852
98841.545342146564508
98841.599325666917139
98843.807466262369417
98843.749280541451299
98843.688838532136288
98843.6229992742592
98843.554135260230396
98843.487347695700009
98843.426106913102558
98843.370204954422661
98843.316358941985527
98843.26119534438476
98843.203490924919606
98843.144436142814811
98843.086064782488393
98843.02908943532384
98842.972833043822902
98842.915444096113788
98842.85434328764677
98842.787321593161323
98842.714552980134613
98842.638962993005407
98843.866972527801408
98843.802871124629746
98843.74508307936776
98843.685825859225588
98843.621416557551129
98843.554018303548219
98843.488861970312428
98843.429893523134524
98843.376816999807488
98843.325936601773719
98843.273481821961468
98843.218162122240756
98843.161564440000802
98843.10594473661331
98843.052063159731915
98842.998332731833216
98842.941820954962168
98842.879625409215805
98842.8102561718988
98842.735037104328512
98842.657859965664102
98842.583302231549169
98844.038519986424944
98843.943294673532364
98843.863461184679181
98843.797952892491594
98843.740103406729759
98843.681667334225494
98843.618204033511574
98843.551665997860255
98843.487718638702063
98843.43072167536593
98843.380346623423975
98843.33244423517317
98843.282599195299554
98843.229424256889615
98843.174991199775832
98843.121991463529412
98843.07089088120847
98843.019435717797023
98842.963875692134025
98842.901039747201139
98842.829988668891019
98842.753023553566891
98842.674736972941901
98842.599680533909122
98842.530632714857347
98842.468478289141785
98844.147954396830755
98844.039477656566305
98843.940757251155446
98843.858189525795751
98843.7913869775075
98843.733573368968791
98843.675787569693057
98843.6130286588741
98843.547472349775489
98843.48506756950519
98843.430175762579893
98843.382652352418518
98843.337789131401223
98843.290321055130335
98843.23875814161147
98843.18578723675455
98843.134789544463274
98843.086082859255839
98843.036481065981206
98842.981408466162975
98842.917382429761346
98842.844204032982816
98842.765368128631962
98842.686134296091041
98842.610854568047216
98842.541670964666991
98842.479147642938187
98842.422721121110953
98844.259296870455728
98844.149214441335062
98844.039289660009672
98843.938920753804268
98843.854891102950205
98843.787091778795002
98843.728646313116769
98843.670404143325868
98843.607446360154427
98843.542058786086272
98843.480608875892358
98843.427818579104496
98843.383061493121204
98843.340955511128413
98843.295608765562065
98843.245498690128443
98843.193835895246593
98843.144375701478566
98843.097565122443484
98843.049903714534594
98842.996023301995592
98842.932025989677641
98842.85784221663198
98842.77760597888846
98842.697061387952999
98842.620753045921447
98842.550774126168108
98842.487433025438804
98842.430171580039314
98842.378000432217959
98844.367058498086408
98844.262719687685603
98844.150877483698423
98844.038197520319954
98843.935086661047535
98843.849103654938517
98843.780315041120048
98843.721988410383346
98843.664687890530331
98843.602790727934917
98843.538427563747973
98843.478209874214372
98843.427112873832812
98843.384486585666309
98843.344389872101601
98843.300419015678926
98843.250976964351139
98843.199870627184282
98843.151576932956232
98843.106328312453115
98843.059905201735091
98843.006267271979596
98842.941206750751007
98842.865179490894661
98842.783298217080301
98842.702095315442421
98842.625986469327472
98842.556408121192362
98842.493282574621844
98842.436120969417971
98842.384284310770454
98842.336528061932768
98844.373412008833839
98844.268758138598059
98844.155712395076989
98844.041386164608411
98843.936793469270924
98843.849946879068739
98843.781042218353832
98843.723093186301412
98843.666084793294431
98843.604070230736397
98843.539373738996801
98843.479264827925363
98843.428962169331498
98843.387740190286422
98843.349309998404351
98843.306614232787979
98843.257927714090329
98843.207376991966157
98843.159847765506129
98843.115737113985233
98843.07057588378666
98843.017705424761516
98842.952569587781909
98842.875823155685794
98842.793094874519738
98842.711331451399019
98842.634891141628032
98842.564941225587972
98842.501208476969623
98842.44329354572983
98842.391077670661616
98842.343756031856174
98842.297340868826723
98849.945526857642108
98849.662648176017683
98849.378154096659273
98849.09581894344592
98848.823418684274657
98848.5667094252276
98844.377389016779489
98844.272330438208883
98844.158135388599476
98844.04222563066287
98843.93619385783677
98843.848381728646928
98843.779201395765995
98843.721517321988358
98843.66489107934467
98843.603084304195363
98843.538575906670303
98843.478787548287073
98843.429211888433201
98843.389110702308244
98843.351793803842156
98843.309720677047153
98843.261136365646962
98843.210684646372101
98843.163671226328006
98843.12042231822852
98843.076112169743283
98843.023575064056786
98842.957971743584494
98842.880208682356169
98842.796564325937652
98842.714390892724623
98842.637953327124706
98842.568026772132725
98842.50420611636946
98842.446132329714601
98842.393966492105392
98842.347232228130451
98842.301723300421145
98842.250231007084949
98850.223928024803172
98849.944651304584113
98849.661248116870411
98849.376083999712137
98849.093172096851049
98848.820854103993042
98848.56473268395348
98844.384523918735795
98844.279436659009662
98844.164633902721107
98844.04797050661
98843.941341124300379
98843.853223363519646
98843.784150872306782
98843.72680170032254
98843.670373694985756
98843.608509267418412
98843.543890672066482
98843.484040327268303
98843.434703672086471
98843.395169716284727
98843.358437354661874
98843.316718228365062
98843.268320887567825
98843.218056656129193
98843.171322565845912
98843.128520034180838
98843.084720860249945
98843.032439085902297
98842.966671749192756
98842.888479262415785
98842.80448904192599
98842.722179544580285
98842.645687869910034
98842.575692923157476
98842.511720811657142
98842.453402538609225
98842.401127446777537
98842.354678221337963
98842.309602450288367
98842.258444211242022
98842.195554773104959
98865.636599187841057
98866.213427230759407
98866.81962278894207
98867.457087598071666
98868.127796909961035
98868.833438728019246
98869.575708655931521
98870.355806500723702
98871.17435841774568
98872.030427193225478
98872.916534446820151
98843.3089698520198
98843.298343298505642
98843.290903902467107
98843.28585658967495
98843.281452055874979
98843.275995070944191
98843.269016108955839
98843.2610965820204
98843.253014740519575
98843.245121660060249
98843.237175685484544
98843.228722607484087
98843.220069203904131
98843.212214325569221
98843.205576857522829
98843.199778890993912
98843.194038939152961
98843.188060394561035
98843.183083476411412
98843.182024741356145
98843.188084151101066
98843.202694171501207
98843.224332683952525
98843.248508422431769
98843.26951821584953
98843.282970994187053
98843.287616119545419
98843.285473730531521
98843.280708238991792
98843.278144491749117
98843.281623640592443
98843.292901238135528
98843.311365474903141
98843.334362607056391
98843.358332646312192
98843.380228356269072
98863.992698623987962
98864.402426234941231
98864.832218160765478
98865.282076415300253
98865.752044462482445
98866.242299127508886
98866.753316510541481
98867.28592733629921
98867.841276132501662
98868.420704397343798
98869.025722682432388
98869.657920730649494
98870.319011791740195
98871.010631948389346
98871.734444865578553
98872.49194268573774
98873.28462541148474
98874.11361202984699
98874.979451866209274
98875.881256057444261
98876.812207367736846
98843.412600545067107
98843.412842520716367
98843.413011606564396
98843.410576426162152
98843.403617537289392
98843.391840885626152
98843.376896317131468
98843.361540966390749
98843.348241648840485
98843.337765550473705
98843.32932919805171
98843.321700427986798
98843.314462762718904
98843.308321515942225
98843.304134036719915
98843.302059261361137
98843.301335354248295
98843.300573134823935
98843.29939621486119
98843.299247772170929
98843.302643929186161
98843.311241393166711
98843.324562052046531
98843.339758244503173
98843.352674669731641
98843.359896934882272
98843.360403681988828
98843.355726845722529
98843.349301048423513
98843.345332547818543
98843.34736984835763
98843.35701795060595
98843.373515467101242
98843.39418153866427
98843.4153292170231
98843.433799212580197
98866.819573784887325
98867.284849273972213
98867.76965788754751
98868.274011865913053
98868.797948057530448
98869.341724835001514
98869.905904425962945
98870.491341639921302
98871.099159183417214
98871.730690190684982
98872.387404560198775
98873.070773294268292
98873.782240589338471
98874.523199876712169
98875.295102399497409
98876.099332768761087
98876.937296442425577
98877.810127529839519
98878.718363548847265
98879.661176062378217
98880.632300221099285
98843.525980142774642
98843.531116620855755
98843.528869755740743
98843.517637878947426
98843.498752460480318
98843.475940291929874
98843.454039306452614
98843.436511256499216
98843.424496087725856
98843.416890047097695
98843.411518919732771
98843.407064285012893
98843.40382898109965
98843.403017465709127
98843.405164764233632
98843.409248981595738
98843.413115014831419
98843.415044372377452
98843.415038804901997
98843.414506776680355
98843.415017584295128
98843.417492132182815
98843.421480791585054
98843.425299257942243
98843.426878528654925
98843.425051626225468
98843.420109467668226
98843.414076072396711
98843.410096215593512
98843.411210577236488
98843.418966124343569
98843.432675905292854
98843.449734308174811
98843.466681172096287
98870.160400034816121
98870.695993023502524
98871.250961131998338
98871.82541573663184
98872.419675636905595
98873.034234315069625
98873.669769476167858
98874.32718185451813
98875.007587929896545
98875.712284084715066
98876.442624103321577
98877.199952060953365
98877.985528712495579
98878.800646909920033
98879.646636722667608
98880.524876480398234
98881.436563085313537
98882.382257661607582
98883.361197985504987
98884.367628031235654
98843.613591740228003
98843.6192368370248
98843.614109186193673
98843.59739692909352
98843.571946475683944
98843.54335805439041
98843.517548681280459
98843.498566760259564
98843.487540204296238
98843.482726476897369
98843.481143248238368
98843.480867045771447
98843.481810494122328
98843.484825016174
98843.490362767144688
98843.497511146430043
98843.504024936191854
98843.507381609510048
98843.506340572901536
98843.501277107105125
98843.493722378538223
98843.485874399179011
98843.479676137547358
98843.475605593863293
98843.472592754173093
98843.469156950915931
98843.464474976921338
98843.458990448794793
98843.454629557963926
98843.454075638568611
98843.459074185288046
98843.469244396765134
98843.482331011473434
98843.495182596510858
98873.020313235552749
98873.602654795206035
98874.204560575119103
98874.826220299495617
98875.467749665433075
98876.129359059952549
98876.811491257161833
98877.514864607117488
98878.240406889613951
98878.989183993558981
98879.762344509639661
98880.561134342060541
98881.386863288338645
98882.240848172950791
98883.12437841676001
98884.038691355759511
98884.984883545184857
98885.963439143451978
98886.973667538462905
98888.010283718598657
98843.683189395465888
98843.672743486808031
98843.651139310459257
98843.622414965764619
98843.592300262884237
98843.566761912530637
98843.549422844414948
98843.541136929925415
98843.540081911269226
98843.543012115755118
98843.547171966318274
98843.551363188656978
98843.555863253233838
98843.5613662138785
98843.567738913741778
98843.573679048509803
98843.576982483224128
98843.575556686104392
98843.568358259275556
98843.556175821635406
98843.541485790570732
98843.52746650291374
98843.516296839748975
98843.508227671161876
98843.502100979865645
98843.496346225962043
98843.49040133827657
98843.485179428433185
98843.482618861846277
98843.484174546960276
98843.48984954370826
98843.497969089978142
98876.487879535095999
98877.133272865961771
98877.798587346696877
98878.483750123894424
98879.188739625169546
98879.913688687578542
98880.658977151848376
98881.425242480821908
98882.213388913107337
98883.024534686468542
98883.859917114532436
98884.72087737149559
98885.608786922559375
98886.52502776242909