/*--------------------------------*- C++ -*----------------------------------*\
  =========                 |
  \\      /  F ield         | OpenFOAM: The Open Source CFD Toolbox
   \\    /   O peration     | Website:  https://openfoam.org
    \\  /    A nd           | Version:  12
     \\/     M anipulation  |
\*---------------------------------------------------------------------------*/
FoamFile
{
    format      ascii;
    class       volScalarField;
    location    "0.0074";
    object      pPrime2Mean;
}
// * * * * * * * * * * * * * * * * * * * * * * * * * * * * * * * * * * * * * //

dimensions      [2 -2 -4 0 0 0 0];

internalField   nonuniform List<scalar> 
106891
(
248849.00700950622559
248567.36541938781738
248288.48363304138184
248014.07790565490723
247751.33962059020996
247505.59659004211426
247286.3558292388916
247092.86157417297363
246928.81582832336426
246790.41286468505859
246664.99057960510254
500820.28825187683105
499619.98441696166992
498428.23356819152832
497239.14840698242188
496048.67867660522461
494854.23397064208984
493654.07213401794434
492445.62819862365723
491226.98007774353027
489998.76864624023438
488764.53517723083496
487528.99455261230469
486298.15520668029785
485079.26931571960449
483875.96676445007324
482684.14111518859863
481495.05171394348145
480301.47917556762695
479101.22036170959473
477897.56994438171387
476697.31714248657227
475505.12466239929199
474321.56213569641113
473147.01434707641602
471986.20556640625
470848.28362083435059
469742.93971633911133
468677.24536323547363
467653.12267875671387
466666.08289527893066
465704.82842445373535
464754.99929428100586
463807.60029792785645
462862.08184242248535
461921.00175857543945
460983.08181190490723
460042.32781410217285
459093.15204238891602
251027.42683410644531
250676.99100494384766
250336.0364933013916
250003.24580383300781
249679.03399085998535
249365.58126640319824
249065.40429878234863
248779.40897369384766
248505.36949920654297
248238.55696296691895
247973.48735046386719
247707.7977409362793
247442.46035575866699
247184.45567893981934
246939.89094543457031
246719.11523818969727
246522.9572868347168
246355.98069381713867
246214.80973052978516
246087.17063140869141
499720.44300270080566
498532.45413208007812
497355.7322883605957
496181.8433895111084
495004.46229553222656
493820.0254077911377
492625.75176239013672
491420.09249687194824
490205.68960952758789
488987.69353675842285
487770.28209495544434
486558.40319442749023
485359.28756713867188
484177.28713417053223
483007.58397102355957
481838.77961921691895
480661.34124374389648
479473.06235122680664
478279.1118335723877
477087.48142242431641
475903.1651496887207
474726.9431266784668
473559.8922290802002
472406.40991401672363
471273.83267593383789
470169.67671966552734
469099.18611717224121
468064.44268798828125
467062.29959487915039
466082.9426097869873
465111.39613914489746
464135.3887767791748
463151.96227836608887
462165.3639087677002
461179.28374290466309
460192.1296558380127
250296.38211822509766
249955.25588035583496
249622.07356834411621
249295.0224666595459
248975.10966300964355
248665.63816261291504
248370.20377159118652
248090.37365341186523
247824.11790657043457
247566.55646514892578
247311.90067863464355
247057.08532524108887
246802.20127487182617
246552.8815803527832
246314.28328514099121
246095.91014289855957
245899.02755546569824
245728.6180477142334
245582.10794067382812
245448.42935562133789
499996.84707450866699
498790.8398551940918
497603.08193016052246
496420.39677429199219
495234.43831253051758
494041.61933517456055
492840.87692451477051
491632.72475051879883
490421.29231452941895
489212.35271263122559
488008.65805625915527
486813.3388500213623
485633.14921569824219
484472.6290168762207
483326.18027496337891
482179.93154144287109
481022.29656982421875
479851.77080535888672
478675.2222900390625
477501.13097190856934
476334.4974536895752
475176.48267936706543
474027.67640495300293
472890.10699462890625
471767.36783218383789
470664.38556671142578
469585.37117004394531
468532.73635864257812
467505.64381980895996
466497.15390777587891
465494.04999542236328
464482.11174964904785
463455.23220634460449
462417.97447395324707
461378.13836669921875
460338.23691368103027
249212.88920974731445
248889.44522285461426
248573.2939624786377
248263.49573707580566
247961.54673957824707
247669.96159362792969
247390.43557929992676
247122.27860641479492
246862.57555389404297
246607.49361610412598
246355.13027572631836
246105.76754760742188
245863.86668968200684
245633.02270126342773
245420.76565551757812
245227.63507270812988
245058.21862030029297
244910.60183334350586
244775.03472518920898
499246.02595901489258
498025.35978889465332
496809.94343948364258
495591.42385292053223
494368.67318153381348
493142.44165802001953
491915.14734077453613
490692.73644065856934
489481.30374717712402
488283.6272029876709
487101.72551155090332
485940.03828811645508
484801.21602249145508
483678.89033889770508
482558.40008354187012
481427.23697090148926
480283.54703712463379
479134.1966552734375
477987.33039855957031
476847.29586410522461
475714.96117401123047
474589.40151023864746
473469.91668891906738
472357.76458168029785
471256.83686065673828
470170.758544921875
469100.4767951965332
468044.96622657775879
467000.07792854309082
465956.11655616760254
464900.03787612915039
463825.01802444458008
462735.62045669555664
461641.83480262756348
248873.79994201660156
248535.38321495056152
248213.13428115844727
247902.95401954650879
247601.83267211914062
247308.34579086303711
247022.39571380615234
246744.4203052520752
246474.2066535949707
246210.65709114074707
245952.26136589050293
245698.97221946716309
245451.99578094482422
245215.18314933776855
244990.75508308410645
244784.10725212097168
244594.75026512145996
244426.59930610656738
244278.67433738708496
244142.86515808105469
499963.0313835144043
498693.37734031677246
497428.40460586547852
496160.36593246459961
494890.49567794799805
493622.73471069335938
492362.02416610717773
491115.51106071472168
489891.06748962402344
488693.40541076660156
487523.40138244628906
486380.62089347839355
485262.55119895935059
484161.02201843261719
483062.88700485229492
481957.69454002380371
480844.36554336547852
479728.82301712036133
478616.2751636505127
477508.58608627319336
476404.27848052978516
475300.17547607421875
474194.53813362121582
473090.01524543762207
471992.26566314697266
470904.54609107971191
469824.58241271972656
468747.37847709655762
467668.43272018432617
466581.63607978820801
465478.84798240661621
464355.63264846801758
463217.29079627990723
248045.19815444946289
247713.86079978942871
247398.23269271850586
247095.19284820556641
246801.96511268615723
246516.86675071716309
246239.42259407043457
245969.6091423034668
245707.27694320678711
245452.09302711486816
245204.70590591430664
244966.3914852142334
244740.00827598571777
244526.23685836791992
244328.13265800476074
244143.89942932128906
243976.56618881225586
243826.3049144744873
243686.70818138122559
499569.85627937316895
498248.41410064697266
496924.04288101196289
495599.48610496520996
494281.84248352050781
492978.28135299682617
491697.05359268188477
490447.40618515014648
489236.70946502685547
488067.01678085327148
486934.3835277557373
485830.3087043762207
484743.19833183288574
483661.39235877990723
482578.24579048156738
481494.57103538513184
480414.2999439239502
479338.01049995422363
478261.98068428039551
477182.04575347900391
476096.08709335327148
475004.8930606842041
473913.31152153015137
472827.68301010131836
471749.13779449462891
470670.68190383911133
469582.41931533813477
468478.09357070922852
467355.2762393951416
466211.94673919677734
465048.33470726013184
463871.80886459350586
247835.49537658691406
247494.51968765258789
247169.22464942932129
246857.17836761474609
246555.97431755065918
246264.34673881530762
245982.55344390869141
245711.45805358886719
245451.59582901000977
245202.93059539794922
244965.95997428894043
244741.53020286560059
244531.27421379089355
244334.27616882324219
244151.0887508392334
243978.17876434326172
243816.76128578186035
243667.42320251464844
243524.48422431945801
499163.70487022399902
497775.71713256835938
496389.09316062927246
495013.81963157653809
493659.72822570800781
492334.91307830810547
491047.3736572265625
489805.2254467010498
488613.17531394958496
487468.26711654663086
486359.83061599731445
485274.22824668884277
484200.84993934631348
483135.18391036987305
482077.74749565124512
481028.66616439819336
479982.97146034240723
478932.15049171447754
477871.83405113220215
476804.32704925537109
475734.50853729248047
474667.36188507080078
473605.31536674499512
472544.99911689758301
471476.64088439941406
470388.51873397827148
469274.17465400695801
468133.93651008605957
466971.26117706298828
465791.46719169616699
247605.22575378417969
247270.16560363769531
246948.45001602172852
246638.21247482299805
246338.55255508422852
246049.95364189147949
245773.70605087280273
245511.23478889465332
245263.67286109924316
245032.3278751373291
244818.05434036254883
244621.53525924682617
244440.48459625244141
244273.31974220275879
244115.09333610534668
243964.87270545959473
243822.70707702636719
243681.92671012878418
498656.90744590759277
497195.98349761962891
495754.54573822021484
494344.74102210998535
492973.0003662109375
491642.08515548706055
490356.78738594055176
489123.86877250671387
487944.81424522399902
486812.69546318054199
485716.66731643676758
484646.92353057861328
483596.54389762878418
482561.37497329711914
481537.14671325683594
480515.24125099182129
479485.54994964599609
478444.64693260192871
477398.08752250671387
476353.29696464538574
475312.60158729553223
474273.41315078735352
473230.0273265838623
472173.57132720947266
471093.96751403808594
469985.3182201385498
468848.95279121398926
467691.00883293151855
248130.73056983947754
247783.80401039123535
247451.6634578704834
247132.71205902099609
246825.32222366333008
246528.7724437713623
246243.62738227844238
245971.77385711669922
245715.85647010803223
245478.8448543548584
245262.66130828857422
245067.94808769226074
244891.90918350219727
244731.68961906433105
244581.52801895141602
244438.5018367767334
244302.15576934814453
244164.63162994384766
498134.63559722900391
496625.36515808105469
495157.71675682067871
493735.69150924682617
492357.91770362854004
491026.79223442077637
489749.42437362670898
488530.47126770019531
487368.32487869262695
486256.69347953796387
485186.52578926086426
484148.05742073059082
483133.87602615356445
482137.85610961914062
481149.76431846618652
480156.07125473022461
479149.15603828430176
478131.83878517150879
477110.64827919006348
476088.16468048095703
475062.86281967163086
474031.5012378692627
472989.03044891357422
471929.20179748535156
470846.85611534118652
469739.62466239929199
468608.87605857849121
248796.15843772888184
248454.45110321044922
248126.32293701171875
247810.14529800415039
247504.38036918640137
247208.65810966491699
246924.47547149658203
246654.86236572265625
246403.61680030822754
246173.37116622924805
245965.26358032226562
245777.20219612121582
245606.71268463134766
245448.89037322998047
245300.00502395629883
245159.13546943664551
245016.38128280639648
500770.11527633666992
499179.4234504699707
497623.62128829956055
496110.79995918273926
494645.79721260070801
493230.31135749816895
491867.91613388061523
490564.83416938781738
489324.57194519042969
488144.61331558227539
487018.59112930297852
485939.22085571289062
484900.25446128845215
483897.75546073913574
482927.5959300994873
481979.05965995788574
481034.69667434692383
480078.63632392883301
479104.38689041137695
478114.2009220123291
477112.95516777038574
476104.68612861633301
475091.38106727600098
474072.02803802490234
473042.55902481079102
471996.50324249267578
470926.57049179077148
249955.53769683837891
249627.06332015991211
249308.32685089111328
248997.72060775756836
248694.90370941162109
248401.16958427429199
248118.94149017333984
247851.00880241394043
247599.12938117980957
247364.34771919250488
247145.93524742126465
246943.61819648742676
246755.60905265808105
246579.44928359985352
246414.87369918823242
246250.54236030578613
501507.36560821533203
499919.27064895629883
498365.13289451599121
496846.3699779510498
495368.85677719116211
493941.10544586181641
492571.58537864685059
491265.70565223693848
490022.00933265686035
488831.92521286010742
487686.15168571472168
486580.90812492370605
485518.23831367492676
484501.62151908874512
483529.71428108215332
482591.57672500610352
481668.29915428161621
480741.01078605651855
479798.35363960266113
478838.03552627563477
477863.6469612121582
476879.84604644775391
475889.274658203125
474891.32365608215332
473882.28366279602051
472856.00760650634766
471805.62952041625977
470727.69203758239746
251088.03761100769043
250769.84680557250977
250459.50787734985352
250156.12084579467773
249859.63202857971191
249570.53153419494629
249289.61721038818359
249017.41264343261719
248755.05202484130859
248503.34907913208008
248264.11709213256836
248038.01587677001953
247823.92439079284668
247622.5913257598877
247423.46805000305176
500716.04808235168457
499178.68415641784668
497670.16288948059082
496196.33924674987793
494770.0294303894043
493402.90562438964844
492098.65217018127441
490850.84424781799316
489646.29098320007324
488473.79424667358398
487332.02975273132324
486229.72163772583008
485176.93383598327637
484175.7430591583252
483217.16617393493652
482284.16353988647461
481358.67337036132812
480427.78302383422852
479485.58744430541992
478531.35047721862793
477566.30762481689453
476590.98396492004395
475604.26545143127441
474602.59230613708496
473580.64779090881348
472534.26301574707031
471463.51997566223145
252413.42497634887695
252100.7713623046875
251795.30480575561523
251495.55090713500977
251200.26760292053223
250908.77145957946777
250620.86051559448242
250337.74959182739258
250060.9693660736084
249793.27381134033203
249536.66133689880371
249290.9459171295166
249057.76022720336914
248827.43442153930664
500169.34357070922852
498672.94402122497559
497206.25412750244141
495785.12350082397461
494421.76151466369629
493116.26712226867676
491857.97455787658691
490631.8553466796875
489426.58703422546387
488242.56677436828613
487092.29782676696777
485990.15089988708496
484941.75828742980957
483941.5393009185791
482976.5207462310791
482031.93792343139648
481095.38138389587402
480158.1212215423584
479214.307861328125
478259.74435615539551
477291.4751033782959
476307.57498741149902
475306.13499069213867
474283.75456237792969
473237.73129272460938
472169.02677536010742
253895.40681076049805
253582.09249877929688
253273.50633239746094
252967.1975040435791
252661.63967704772949
252356.42588233947754
252052.81063461303711
251752.44892120361328
251458.29323577880859
251172.97462463378906
250897.35347747802734
250634.3521671295166
250375.73074913024902
499838.7624626159668
498379.75727462768555
496964.92027473449707
495605.48029708862305
494297.57976722717285
493027.0113639831543
491778.12219429016113
490541.14619827270508
489318.02534675598145
488122.0611686706543
486968.91382789611816
485867.1871280670166
484815.97837066650391
483807.64607429504395
482831.72726249694824
481877.33981704711914
480933.57869911193848
479990.12627220153809
479038.16959381103516
478071.82200813293457
477088.85181617736816
476088.68568992614746
475069.15716171264648
474026.78799438476562
472960.21239471435547
255498.98629188537598
255177.75786018371582
254857.14180755615234
254535.37771224975586
254212.21709251403809
253888.80011177062988
253566.3351879119873
253247.29036521911621
252934.51991271972656
252630.14219093322754
252338.62014961242676
252053.33772659301758
499688.39101409912109
498278.90945243835449
496922.50250244140625
495612.43086624145508
494331.67446708679199
493064.01834869384766
491801.72249984741211
490548.62204170227051
489317.57120132446289
488122.89447784423828
486974.02985000610352
485873.80653953552246
484820.19360733032227
483808.27384948730469
482829.9515552520752
481873.21481895446777
480924.13257789611816
479970.6402530670166
479005.08800506591797
478025.03067970275879
477030.62425804138184
476019.22994613647461
474984.28488731384277
473920.56954383850098
499733.11361694335938
498374.65020561218262
497058.68534278869629
495767.12039947509766
494483.29315376281738
493201.15989303588867
491926.10985374450684
490669.68737411499023
489443.74027061462402
488256.80796432495117
487113.93782806396484
486017.7413330078125
484968.5893497467041
483961.7838020324707
482985.52623748779297
482023.94386863708496
481063.59737205505371
480096.80110740661621
479120.8368968963623
478133.99968528747559
477130.43794822692871
476100.59642028808594
475037.76934051513672
498652.31038284301758
497347.46491432189941
496047.11380386352539
494745.08758735656738
493447.05756187438965
492164.58104515075684
490908.58732223510742
489687.21479606628418
488506.38363456726074
487370.94476509094238
486284.26239967346191
485244.78818893432617
484242.56911277770996
483262.16064643859863
482290.27013206481934
481319.47378730773926
480345.43217277526855
479362.07086563110352
478359.20351219177246
477325.91307640075684
476257.15584564208984
495062.62851524353027
493748.76097106933594
492460.40776824951172
491206.57540130615234
489992.14814567565918
488820.76539611816406
487696.26931190490723
486619.93823623657227
485585.42092132568359
484579.92321395874023
483591.15178871154785
482610.75033569335938
481631.05539321899414
480641.30173683166504
479628.32365226745605
478582.25520896911621
477501.74610137939453
491519.06776809692383
490316.07529640197754
489155.69341659545898
488040.97097778320312
486969.87558937072754
485933.75562858581543
484921.67955207824707
483923.52801704406738
482928.38441848754883
481922.37450408935547
480891.5911750793457
479828.47028923034668
478734.73693656921387
491827.36090278625488
490635.52640151977539
489484.92988014221191
488378.09969902038574
487310.64124870300293
486272.23289680480957
485250.78124809265137
484233.31838035583496
483205.33452796936035
482154.29373741149902
481075.24201393127441
479971.29718208312988
636260.30484199523926
635179.25547027587891
634110.51945686340332
633021.54549217224121
631902.6264705657959
630757.40525436401367
629589.03276634216309
628393.66555786132812
627159.59649848937988
625872.17020034790039
624521.26305770874023
623106.45994758605957
621638.62128067016602
620133.85204696655273
618606.55329513549805
617066.82938957214355
615521.72371864318848
613976.42170906066895
612434.45272827148438
610898.76599311828613
639006.15909576416016
637878.77886390686035
636814.82065773010254
635761.69491004943848
634684.63844299316406
633573.88630485534668
632433.95700263977051
631269.04181861877441
630073.61589622497559
628833.18213844299316
627531.00009536743164
626156.52602577209473
624712.0999927520752
623213.34889793395996
621680.76913642883301
620129.81238746643066
618568.36033630371094
617000.70438766479492
615431.78203201293945
613867.69557762145996
612314.37675476074219
610779.20386123657227
643059.408935546875
641704.32028007507324
640475.68270301818848
639359.11592102050781
638308.46427345275879
637267.82470703125
636199.48641967773438
635093.58613204956055
633955.82535362243652
632791.2469310760498
631593.36643028259277
630344.76700210571289
629026.30834007263184
627627.32150459289551
626152.91501426696777
624623.50664901733398
623064.01263236999512
621490.99609756469727
619910.07019233703613
618322.66488838195801
616733.36564636230469
615150.66782188415527
613583.19327354431152
612039.65660667419434
610529.75012969970703
609062.56222152709961
645829.77609443664551
644366.05052757263184
643013.23611259460449
641788.03914642333984
640677.61054420471191
639634.80447006225586
638601.11190986633301
637537.39108848571777
636433.43097305297852
635295.86482048034668
634130.05077362060547
632928.79607582092285
631672.29604721069336
630339.18331718444824
628918.40972137451172
627417.48109245300293
625861.05812644958496
624277.85097885131836
622685.55200386047363
621087.76549530029297
619483.12761688232422
617875.71122360229492
616276.35372161865234
614696.39312171936035
613145.5765495300293
611632.79606628417969
610165.26996231079102
608746.8493537902832
648501.14937591552734
646954.74169158935547
645493.05402946472168
644140.37777709960938
642916.83610534667969
641810.77241706848145
640773.81914710998535
639745.13614273071289
638683.73860549926758
637579.46245765686035
636439.77359962463379
635271.28406715393066
634065.56563568115234
632800.56557083129883
631452.99848937988281
630011.72870063781738
628486.33073806762695
626905.43899726867676
625301.19500541687012
623692.31150817871094
622080.73394966125488
620462.52506065368652
618841.17123985290527
617229.1323413848877
615639.5487003326416
614083.23952865600586
612568.7000560760498
611101.21047973632812
609683.07219505310059
608315.15196418762207
651042.85020065307617
649424.57962989807129
647882.96656608581543
646421.62458992004395
645067.54632377624512
643843.36471557617188
642738.79768943786621
641704.72888946533203
640678.49347114562988
639617.86589050292969
638512.32659530639648
637370.24932861328125
636198.66076469421387
634988.78308296203613
633716.82570266723633
632357.73706245422363
630900.19684028625488
629355.52788734436035
627755.15393257141113
626133.95674705505371
624511.69670104980469
622888.71279525756836
621258.85116195678711
619625.0753288269043
618001.61960411071777
616404.01944160461426
614843.9250545501709
613328.98712158203125
611862.35823631286621
610444.91211891174316
609077.90582656860352
607763.3662281036377
651743.84381484985352
650133.78506278991699
648595.12895965576172
647133.14105033874512
645777.44672012329102
644553.05843925476074
643450.11619186401367
642418.50142669677734
641393.93155097961426
640332.83883476257324
639224.70967864990234
638079.01626396179199
636903.45046615600586
635688.82744216918945
634409.98612403869629
633040.44052124023438
631568.92045211791992
630008.43878173828125
628393.1152458190918
626759.44743347167969
625127.32575988769531
623496.30364418029785
621858.74848556518555
620217.17399978637695
618586.90880584716797
616984.88791465759277
615422.93007469177246
613907.93013763427734
612441.93215751647949
611024.89452362060547
609658.53655624389648
608346.09508323669434
607091.32825660705566
734651.40861320495605
731813.87621116638184
729011.41684722900391
726273.74555206298828
723620.43110847473145
721075.3220329284668
652222.33424186706543
650617.18542098999023
649079.79544258117676
647616.68837928771973
646259.04939651489258
645033.14916801452637
643929.87779998779297
642898.56730651855469
641873.81453704833984
640811.38327407836914
639701.04023170471191
638552.47887420654297
637374.00417327880859
636156.3527660369873
634873.31812477111816
633497.27075386047363
632016.99414253234863
630446.60834693908691
628821.68536186218262
627179.78299140930176
625541.31629753112793
623904.97044372558594
622261.84628486633301
620614.26114463806152
618978.72222518920898
617373.18383979797363
615809.66192436218262
614294.60307121276855
612829.24435234069824
611412.82942962646484
610047.38195037841797
608737.16073608398438
607485.93857002258301
606298.56375503540039
737899.27282905578613
735066.39656448364258
732213.01334953308105
729395.49453163146973
726643.87138748168945
723978.63834381103516
721423.33123588562012
652473.5900936126709
650870.97669219970703
649333.90988731384277
647869.95147132873535
646511.38016128540039
645285.15045547485352
644182.1810131072998
643151.34910583496094
642126.50354957580566
641062.94335556030273
639950.79458618164062
638800.01542282104492
637619.29247093200684
636399.34878540039062
635113.43315124511719
633733.33269309997559
632247.84878349304199
630671.87268829345703
629041.94791030883789
627396.08987045288086
625754.46135711669922
624115.50077438354492
622469.93419075012207
620819.82315826416016
619182.18547821044922
617575.47154808044434
616011.72487258911133
614496.9476375579834
613031.99107551574707
611615.9719066619873
610250.91858863830566
608941.78659439086914
607692.2061882019043
606506.50673866271973
605384.46408462524414
249405.6464958190918
249077.17321395874023
248757.16002082824707
248448.27622413635254
248154.07372093200684
247873.82053184509277
247611.53028106689453
247364.25248718261719
247136.48723411560059
246929.1370735168457
246736.00919151306152
499931.71401214599609
498649.28493881225586
497381.75954437255859
496121.03037452697754
494859.30247116088867
493594.11274147033691
492327.18360900878906
491061.92591857910156
489802.64899635314941
488551.3105411529541
487306.02713203430176
486063.72394561767578
484822.23752403259277
483580.37412071228027
482338.57247161865234
481099.63022232055664
479866.17169570922852
478639.95486259460449
477425.33687400817871
476232.09353446960449
475072.34411811828613
473952.26909446716309
472867.09311485290527
471803.78351593017578
470749.61095237731934
469698.31975936889648
468649.52679634094238
467603.67543983459473
466560.95539093017578
465525.47411155700684
464506.02120018005371
463510.14142036437988
462538.53347206115723
461584.6788501739502
460638.14728164672852
459687.85214233398438
251941.52096366882324
251580.97978591918945
251238.72059059143066
250912.46164703369141
250598.1872615814209
250290.43257141113281
249983.41142082214355
249672.61728477478027
249356.28425025939941
249035.6211986541748
248714.23301887512207
248396.1591796875
248085.58763885498047
247784.67421913146973
247496.62181663513184
247221.22708702087402
246963.07722282409668
246720.47244644165039
246498.71393394470215
246298.8654670715332
246115.65309524536133
500330.75609588623047
499062.58963966369629
497808.22478103637695
496552.05438613891602
495283.38173484802246
494003.18912315368652
492720.48099899291992
491445.1092586517334
490183.87196731567383
488937.45344161987305
487701.7727222442627
486473.14311599731445
485250.1854133605957
484031.84311866760254
482817.69179725646973
481609.39467430114746
480408.23703002929688
479212.68811988830566
478022.1714916229248
476842.02111434936523
475682.99742889404297
474553.15603256225586
473450.59443664550781
472364.80952835083008
471285.4589958190918
470208.80714225769043
469135.58364868164062
468064.84315299987793
466994.61783790588379
465927.76066970825195
464872.93459510803223
463837.96208381652832
462823.80334854125977
461823.96344566345215
460826.90053367614746
459820.40171432495117
251171.85906600952148
250811.3365364074707
250467.50511741638184
250138.79043769836426
249822.61654281616211
249515.34973526000977
249212.62375640869141
248910.14390754699707
248605.06750679016113
248296.82755851745605
247987.34943580627441
247679.75625610351562
247377.89670944213867
247084.07345962524414
246801.58125114440918
246530.91906356811523
246277.24309921264648
246039.95606231689453
245824.86711502075195
245632.8348388671875
245458.96904373168945
499669.25623893737793
498416.18411827087402
497153.15180015563965
495868.90018272399902
494570.12319946289062
493274.35213470458984
491997.50279235839844
490744.78176116943359
489511.21469116210938
488289.18795776367188
487076.7814769744873
485877.52767562866211
484692.41498374938965
483517.78691673278809
482349.53646659851074
481184.74605560302734
480019.7248706817627
478851.53398513793945
477683.19009590148926
476524.55490684509277
475384.8792610168457
474264.45022583007812
473154.5826301574707
472046.99407958984375
470940.44086265563965
469837.49883651733398
468737.4520378112793
467637.03361701965332
466536.92190933227539
465443.70046234130859
464364.1910457611084
463299.46017265319824
462243.17326354980469
461184.24312591552734
250030.88810729980469
249681.53277206420898
249346.80048370361328
249026.12146759033203
248718.024658203125
248419.36343574523926
248125.66948509216309
247832.58906173706055
247537.28933525085449
247239.57664108276367
246941.48577690124512
246646.87102127075195
246359.06747245788574
246082.38931655883789
245818.49967956542969
245573.01700782775879
245345.90385818481445
245142.69023323059082
244963.44365692138672
244802.64220237731934
500313.4398078918457
499044.87982749938965
497762.61174201965332
496459.02240753173828
495147.16577529907227
493850.49594688415527
492585.2066478729248
491351.72417449951172
490139.24259185791016
488937.88706970214844
487749.18470764160156
486582.64008522033691
485441.24404335021973
484316.00075149536133
483194.47432708740234
482068.48654937744141
480933.61991310119629
479788.2033748626709
478636.32382011413574
477487.68550682067871
476350.2230339050293
475222.8987922668457
474097.29707336425781
472967.22684478759766
471834.2291202545166
470703.30234718322754
469575.58548736572266
468447.66538619995117
467317.18946266174316
466186.84536552429199
465061.53447151184082
463942.97370529174805
462827.33563232421875
461705.96134185791016
249290.97579574584961
248932.93781852722168
248591.29763603210449
248267.25836372375488
247960.20564651489258
247666.94523620605469
247382.0775032043457
247099.68095397949219
246815.22583961486816
246527.20750427246094
246237.1406135559082
245949.10468292236328
245667.30311584472656
245396.88625335693359
245140.62490463256836
244904.75800514221191
244690.17768859863281
244502.28793334960938
244340.45254135131836
244197.77884864807129
499659.31000137329102
498341.47320747375488
497012.96006202697754
495691.42898178100586
494398.41529655456543
493145.23735427856445
491926.80051803588867
490730.22343444824219
489547.6178035736084
488384.23957061767578
487252.32932662963867
486154.53691673278809
485077.00091743469238
483999.66950988769531
482909.25380706787109
481801.90217399597168
480680.19234275817871
479552.12583923339844
478427.35780334472656
477309.17888069152832
476190.46491241455078
475060.9089412689209
473916.76747703552246
472763.4595775604248
471609.79201889038086
470459.81702613830566
469310.47620010375977
468155.44497299194336
466992.24636077880859
465824.30494117736816
464656.63624382019043
463489.4676513671875
248319.42549896240234
247969.19649887084961
247640.77009773254395
247333.82181549072266
247044.46414947509766
246766.00100898742676
246491.08798408508301
246214.21748352050781
245933.56789016723633
245650.9931468963623
245371.12608337402344
245098.75760650634766
244839.05751609802246