/*--------------------------------*- C++ -*----------------------------------*\
  =========                 |
  \\      /  F ield         | OpenFOAM: The Open Source CFD Toolbox
   \\    /   O peration     | Website:  https://openfoam.org
    \\  /    A nd           | Version:  12
     \\/     M anipulation  |
\*---------------------------------------------------------------------------*/
FoamFile
{
    format      ascii;
    class       volScalarField;
    location    "0.0074";
    object      T;
}
// * * * * * * * * * * * * * * * * * * * * * * * * * * * * * * * * * * * * * //

dimensions      [0 0 0 1 0 0 0];

internalField   nonuniform List<scalar> 
106891
(
300.13537580816614536
300.13413544108192355
300.13043626861752955
300.12476113020596813
300.1179391789279407
300.11126966463245935
300.10580253515587401
300.1017045343937184
300.10153812512487548
300.10197642804433826
300.10662690983457423
301.39763936788193632
301.40499715334289021
301.45014161912303052
301.52480622057549908
301.61716816758035975
301.71487711166633972
301.80735761239111525
301.88612518530612761
301.94428718847063919
301.97456720836686372
301.96831023794300108
301.91869477417748158
301.82343816624012334
301.6876505013217411
301.5232971019611341
301.34466155253693387
301.16349487992999912
300.98633928169670071
300.81509488972335475
300.65052823335759058
300.49534913892614441
300.35502635794688331
300.23454702964255603
300.13569543896892355
300.05542377188425007
299.98754652713483893
299.92673251766120757
299.87044698186861069
299.82061553882903127
299.78009519266976213
299.75133853933908767
299.73418151765451967
299.72663077623013805
299.72679959917752512
299.73248576784885699
299.74114994408159873
299.75005400649632747
299.75650605825080675
300.12557740445970467
300.12672068911496126
300.12837947554015727
300.13112820262125524
300.13519796123642891
300.14037620011293939
300.14611760833651033
300.15149844717802807
300.1554561078200436
300.1572032723379948
300.15608465908337621
300.15201900448221295
300.14553021021214363
300.1374150537052401
300.12936388738074811
300.12276656395135888
300.11804761425707966
300.11798179486027038
300.1189727338895068
300.12449707264886456
301.42208980924044681
301.46572415154798819
301.53942512585371105
301.63363418401451099
301.73713449544180776
301.83888355285398575
301.92834426359576128
301.99615273705143181
302.03248953281325839
302.02731466522129722
301.97320150604952005
301.86810040003155109
301.71895432127382719
301.54004764601359057
301.34820909656326648
301.15723720451273948
300.97482206349081935
300.80265120069020668
300.64055659351703298
300.48998985742576906
300.35525185278197569
300.24059392978966798
300.14730314053446136
300.07191318917926992
300.00766584101313583
299.94861865317130878
299.89169775945435958
299.83828669656418242
299.79197282422774151
299.75615086733762382
299.7324090825006806
299.71991818256293527
299.71735634822306338
299.72309554666441045
299.73452771706337217
299.74793287406902209
300.13673681173287378
300.13869743079914088
300.14105733390601927
300.14430356695618229
300.14875713486503628
300.15442350456652321
300.1608682590619992
300.16717416490473624
300.1721652980488102
300.17487900775012122
300.17458472426062599
300.17110312896670621
300.16494311830240349
300.15673466459730889
300.14829120861548972
300.14109197914956439
300.13564224221994436
300.13489680563776574
300.13529548848964623
300.1402655695766839
301.46027144414978238
301.49962529279906676
301.56706677119467486
301.65467133634683705
301.75210278049348744
301.84836063237747794
301.93205608605279622
301.99378887552313699
302.02373112462890958
302.01386184641620503
301.95802700511734429
301.85428435576818629
301.70774090896543385
301.53016831896246686
301.33565654086464747
301.13692310926984419
300.94258856808454539
300.75712111498671675
300.5835298473064654
300.42575832636441646
300.28876004435772984
300.17653837183388532
300.08926228849571771
300.02275021201296568
299.96911824586834427
299.92099697863511665
299.87438539678578309
299.82913972870613861
299.78846471791393924
299.75622348349355661
299.73477710259084006
299.72446597552396952
299.72430113685612696
299.73228543163696713
299.74559441310748298
299.75990765486966438
300.14541015145601932
300.14895169181670553
300.15310773898306707
300.15819112881314368
300.16425172770306062
300.17097888711151654
300.17766474538905186
300.1832775666958355
300.1868561246208742
300.18757163079169459
300.18511475434894464
300.18001768621644487
300.17269036373971858
300.16483697026143318
300.15781478691855
300.15201664018820793
300.15041154808386636
300.14958500709406053
300.15286596183221945
301.46971640116544222
301.51612606226717617
301.59509212996204042
301.69581609899728392
301.80292885216425702
301.89971762772819375
301.97073834031579054
302.00459215319943951
301.99436467035820897
301.93785978574697992
301.83873180176675532
301.70564735796585865
301.54950433173775082
301.38091244607585395
301.20771194582698627
301.03442475887140972
300.86285816483149347
300.69524905115849833
300.53542854172877696
300.38941133623097812
300.26310895848467908
300.15938066871422052
300.07719075032241562
300.01176863781489601
299.9562786260829057
299.90584655693754712
299.85823975316844781
299.81434747002941776
299.776963553981318
299.74902609367796913
299.73221885114583074
299.7263488789332655
299.73036722357289818
299.74184792928588195
300.14156360884078367
300.1471907450847425
300.15289317283861692
300.15872237900561004
300.16483815468450302
300.17131321907544361
300.17797102770708761
300.18433467169211326
300.1896200702516353
300.19306885846077648
300.19403138941032694
300.19223604026024077
300.18823307903460318
300.18223337408431917
300.17568293828753667
300.16962513895379061
300.16411238452724319
300.16185459812413683
300.1596429001694446
300.16067789361790119
301.45194177616480147
301.4865971626531973
301.56384227829062183
301.67351328341391081
301.79711708318831143
301.91204605377555481
301.99687229158490709
302.03485452057066141
302.01729944951478046
301.94444600844923343
301.82436915871369365
301.6694752609578245
301.49344030757544033
301.3084697782229
301.12328477756858547
300.9429081523220475
300.76985104403030391
300.60601675066862981
300.45386500034641131
300.31658717633564493
300.19858852251547887
300.10192048188974923
300.02644502706971252
299.96901987815391522
299.92407878610288208
299.88569902612670148
299.84998353600315113
299.81596527983714395
299.78536500906625406
299.76086304097117363
299.74487915983672792
299.73849305061452242
299.74113031762567516
300.14447610377123965
300.15302169660429854
300.16127669690166613
300.16901312299529536
300.1761498169169613
300.18257329029376024
300.18806600041392585
300.1921957468812252
300.19452107845893352
300.1946759212241318
300.19253680804041551
300.18881799770502994
300.18370885377379409
300.17848428678610162
300.1738543168621618
300.16938469709782566
300.16725238292065114
300.16435561133744159
300.16350120313120442
301.49503404785713201
301.56995306194482964
301.67953999488793215
301.80477983948634346
301.92283865148311861
302.01085229490149686
302.05188278464294171
302.03812205231463395
301.97074621800192062
301.85785303085259557
301.71118160292070343
301.54227396390785998
301.36059711507868997
301.17296989233187787
300.98429071332276408
300.79937669985616822
300.62293549379830893
300.4598055778715775
300.31409186072386319
300.18928037482697846
300.08794403795502603
300.01013250280084321
299.9526388176900582
299.90950026210151691
299.87386041314931617
299.84024459848319566
299.80681691308888048
299.7753407974018387
299.74946571103726001
299.73248724717581126
299.72545173438572874
299.72682583406185586
300.13696521030203712
300.14783520153730478
300.15844169990754153
300.16813785660519898
300.1764778967865368
300.18312967396246904
300.18788946798161987
300.19056848284509442
300.19111292270957847
300.18960527476468769
300.18619578645797219
300.18178182247532959
300.17662521922704855
300.17194382155304311
300.16835879343057059
300.16518178064779931
300.16408582047836262
300.16212943736411489
300.16141649503475719
301.63014655039518175
301.73422942728507223
301.84748720914365094
301.94748395835193833
302.01407099216294228
302.03315141430880431
301.99944635998559761
301.91619056498387863
301.79286380669947221
301.64189583120804627
301.47495945667583328
301.30075557512441264
301.12463852079241633
300.94948008776253801
300.77814893967484977
300.6141341007663641
300.46101680666839684
300.32248499146515996
300.20126980159278673
300.1004702988773829
300.02070565291398907
299.9600488554833646
299.91425760994934535
299.8765878349370837
299.84148215782056468
299.80721021477580734
299.77537821155243591
299.74930484596848146
299.73158782793115051
299.7225649979079094
300.1355584483933967
300.14676663353043296
300.15732657680558759
300.16657492763022219
300.17385410756958208
300.17869004483998197
300.18074451660612567
300.17997800108815909
300.1767356215538598
300.1714941556293752
300.16550818072971651
300.15935062807602662
300.15438195747907457
300.15138908210832369
300.14967471959568002
300.15049828040770308
300.15117713977593894
300.15295223781430423
301.78634609229652597
301.89228177160214273
301.98004680770748109
302.03204310610391303
302.0372338075065386
301.99160029244609404
301.89856388349073768
301.76738775118070635
301.6104268673371962
301.44036085528301783
301.26670533235102312
301.09474523900649956
300.92681448758929719
300.76435369304755341
300.60887965137675337
300.46260113224957422
300.32828055269419565
300.20882342335585236
300.10657386989493034
300.02285091945759632
299.95656817620556467
299.90391568042247172
299.85994081046862902
299.82072941319597703
299.78452891333688513
299.75208716331701453
299.7256906979021096
299.70708115689529905
300.1140362375983841
300.12293630448823478
300.13207780608343
300.1409254678262073
300.14861546764399236
300.15426407152773436
300.15707402785773183
300.15658228290311627
300.15293736304289496
300.14663799571013669
300.13919654386910452
300.13166369107244691
300.12573468353451744
300.12263436319670973
300.12206876719028514
300.12505420791927691
300.12924805699600483
300.13498900975355355
301.89713783890624654
301.97869943956607131
302.03154858800814964
302.04603998703936441
302.01697098473277947
301.94325371546415226
301.82888272365653393
301.68180878271618894
301.51238927592658001
301.33058807368138332
301.14392346917765053
300.95795535862276893
300.77759908804296174
300.60723506285148687
300.45118767899055001
300.31278999308108268
300.1937957900248648
300.09465687953303359
300.01434849763785451
299.94965933936589408
299.89591785298358673
299.84909555295229211
299.80658166167233958
299.76770681133427843
299.73356671911869853
299.70538360600841088
299.68332732240997984
300.08574973469529823
300.09112846485982118
300.09781379818429059
300.10503044352998359
300.11158486386403865
300.11610262979655772
300.11747643716955736
300.11535620275043357
300.1099037147520221
300.10252477836326079
300.09455103256073016
300.08797456448053254
300.08452207069893802
300.08446359491830435
300.08882202175936982
300.09589871384991966
300.10537122361358797
301.88579836192599259
301.97903676610218326
302.0469266145094025
302.07633548399775236
302.05917592530698812
301.99319811600491903
301.88182912280205983
301.73293859439098696
301.5574299564083276
301.36686263328709856
301.17109424428741704
300.97784376734972511
300.79314093066051328
300.62142898708361827
300.46589800690225047
300.32835294712771201
300.20942660697249948
300.10884324158189429
300.02495627580094606
299.95496354357254631
299.89541135310616937
299.8427439462551547
299.79408928388471622
299.7484971773596385
299.70677177689589143
299.67080561526313431
299.6420783927312641
300.03875155512218953
300.04198446315069759
300.04735064843708869
300.0537885783786578
300.05975915369657514
300.06370452018097694
300.06471380010788153
300.0623793150746792
300.05759992487054433
300.05155109511821365
300.04607644110592446
300.04307469122846896
300.04334118196794634
300.04798136913058215
300.0560764391574935
300.067059387009067
301.81671223737504306
301.9158456167445479
302.002883609666128
302.06288667785918278
302.08313240395511912
302.05672870900161797
301.98377274122111658
301.86926151403110907
301.72003314642205396
301.54239766630894337
301.34316542256323146
301.13140998997653242
300.91831140793806298
300.71485609964781816
300.52965461766518729
300.36769405273969369
300.23005482693241674
300.11522004736036706
300.02041969055346726
299.94246869689339974
299.87789181130472116
299.8227007606586767
299.77331079905815159
299.7275624187716403
299.68540153451078822
299.64796349518115903
299.61687928421770266
299.59289817454322247
299.99213638471940158
299.99515759840471674
300.00027955581117567
300.00634147785729056
300.01194380522298388
300.01604262377071564
300.0177987875049439
300.01741257188393774
300.01546309783037714
300.01316824260055682
300.01208717266428039
300.01310909057076515
300.01723234368751037
300.02421489788514464
300.0337010818779504
301.87420688776722955
301.97105289793478278
302.04688694852916342
302.0877642313195679
302.08551686379064449
302.03919769848010901
301.95264741326178637
301.82984677022807318
301.67305898392510244
301.48565538148761789
301.27526408356021648
301.05401869499775103
300.83610742684800243
300.63358423789657081
300.45358707506329665
300.29807458305248247
300.16603989575702371
300.05571747752378542
299.96475812455480536
299.89004106716288334
299.82745953084196344
299.77232897149389146
299.72100656957701403
299.67262346826788644
299.62829824013408597
299.59014537154854452
299.56061621372492709
299.95553243684793188
299.95938438243285873
299.96518376183831833
299.97185121875571667
299.97839788299563679
299.98375291183356239
299.98757704943670888
299.98986793457135036
299.9911342973790056
299.99237189185197394
299.99433160117678199
299.99784719567992397
300.00316943250055601
300.01024804931842027
301.96234545947703509
302.02869371322526604
302.05786150039870108
302.04542501079055228
301.99377721968056676
301.90841388559721281
301.79330964503037649
301.64987791547639517
301.47952627721247154
301.2871378734784571
301.08202702430963882
300.87603977953193635
300.67992943751556822
300.50007424809490431
300.33900289290585306
300.19763424392243678
300.07662016129501126
299.97606322374804222
299.89457572076332781
299.8282771270272633
299.77189712109651509
299.7205911031692267
299.6719618299572403
299.62685914671226328
299.58767028938291332
299.55718883692890131
299.92602145867545005
299.93159514326447379
299.93915587875108031
299.94785012901940036
299.95650334870185816
299.96433131285766649
299.97077000160930993
299.97562874687258727
299.97927799496966372
299.98221590597836439
299.98505533872969409
299.98845231837356096
299.99275375272543442
302.02562716002353227
302.06445067708085617
302.06067798376273004
302.01733936824291504
301.93859959770736623
301.82675339884457344
301.6826315016199942
301.50828784373709368
301.30954988846798415
301.09661621437510348
300.88160059230051502
300.67484492483788472
300.48322878851877249
300.31060044712461377
300.15933797875794653
300.03128903586014076
299.92743635891639542
299.8466498776001572
299.78470594094244461
299.73485880096899336
299.69114226311808125
299.64995244780675421
299.6108649799711543
299.57613334191978538
299.54905312673480466
299.90538008344520904
299.91373434644162899
299.92425255422273267
299.93571942342811099
299.94699365570664895
299.95702607465892697
299.9650104644394446
299.9707528546462072
299.97454364774182523
299.9767957141189072
299.97840965701436744
299.98008220459092854
302.04750605412237974
302.03275166700291265
301.97603237669198961
301.88377334081678782
301.76080820587168319
301.61064718581536681
301.43735500436923758
301.24737947873165922
301.04959039935960163
300.8527455612206154
300.66298224661346694
300.48364075812577312
300.31724323364204565
300.1666222452056445
300.03544541945427682
299.92707004207096588
299.84255400881301057
299.7790447295583931
299.73071106233498995
299.69089908341959472
299.65478318495718213
299.62073075312895298
299.58988809385209606
299.56501722595356796
302.0262491634571802
301.96074747768949464
301.85961403642653522
301.7287392322505184
301.57282043237290736
301.39681019735206746
301.20768484951986466
301.01400230282104076
300.82364262748154715
300.64152248767419451
300.46979657510263451
300.30941132941484284
300.16245549355409139
300.03256091846265008
299.92380372970069402
299.83799701053402487
299.77349526087994036
299.72532639777267605
299.68711077487614602
299.65384368470654408
299.62319366641241913
299.5957304698906114
299.5739090214840985
301.95110899661926851
301.86961691381134187
301.75554236832743982
301.60929114619068514
301.43528756726857409
301.2421785982661504
301.04024064368729796
300.83863667981961498
300.64387374135492337
300.45997197455659489
300.29050565937433248
300.13968179030541705
300.01177458536631093
299.90914598815629688
299.83070996734028313
299.77200467107769555
299.72689644442317558
299.68975086159139209
299.65728476828758176
299.62934941950180701
299.60711904588941934
301.32954916399245349
301.13989339018581859
300.94699206556725812
300.75910426833138445
300.58083096542208068
300.4137118963161015
300.25864662050418019
300.11799613747359672
299.99542946963310897
299.89412391389623735
299.81485286138024549
299.75528385435427481
299.71062287227726983
299.67577497527906871
299.64759742151670707
299.62528467400613863
299.60901617460558555
300.52461975221575585
300.37695602652252092
300.24103334571293544
300.116535340370433
300.00541878085834924
299.91036814152255374
299.83296713002187062
299.77219520131404806
299.72466544989117665
299.6868091309276565
299.65668295249469111
299.63392386680243362
299.6186981150557358
300.44878339145799373
300.30842493668694715
300.18120130687037772
300.06748009292488177
299.96916083721060886
299.88739954283391853
299.82082064759197237
299.766340428813578
299.72112568785939857
299.6839121566536619
299.65519581977821417
299.63575797634030096
301.89511990263446251
301.95488297260880017
301.98504372607970936
301.94852246577778487
301.82934933670253486
301.64186100041439431
301.42477225554586084
301.22503046108266744
301.08059450531698076
301.00979070203663923
301.01160823853308557
301.07110528942683914
301.16745733440660615
301.2803650808640441
301.39497927068219951
301.5034630554019941
301.60405687075211745
301.69835776700051611
301.78767803582985607
301.8715443911050329
301.78778699245600592
301.81260831649507281
301.87253600120970987
301.93609327887406835
301.95804057759238503
301.90298947082453651
301.76365279903643568
301.56425200787191443
301.34862262877788908
301.16151755132955259
301.03470571627639174
300.9815084933799767
300.99817268149496385
301.06993467704859313
301.17728944655033274
301.30097933737982885
301.42522062689687345
301.53960029894119543
301.63909954019527504
301.72365557650158507
301.79660316017742616
301.86275992421082037
301.84261598759547951
301.81967992987847538
301.78433425402181456
301.77777252547616627
301.81681276380072632
301.88404399965037328
301.93631258727822342
301.9288638897915007
301.83833564138313932
301.67303070733453296
301.46721905335243719
301.26464267614028358
301.10320102712438484
301.00626121821295555
300.98139855777310459
301.02293500598000264
301.11610613767362565
301.24072581708850294
301.37538541649337276
301.50200833565492076
301.60899294848189811
301.69339895006407914
301.76038112737990105
301.81950664502022619
301.87986870029499187
301.94422771681047379
301.9072384079873359
301.93292633866855113
301.91421777517700775
301.88408562145144742
301.87366662429172948
301.89363802817894111
301.92690188164834808
301.93737644102372997
301.89180157960271345
301.78013116090932044
301.62040732395905707
301.44875536509380254
301.30284322811530728
301.20712575034735892
301.16897070306333717
301.18402351807355899
301.24256443841721875
301.33331177368091858
301.44359479505658328
301.55920596339399253
301.66680064304836151
301.7567033918739412
301.826452140353922
301.88029066974422676
301.92506203089897099
301.96540607181191262
301.99947744987076703
302.01909376542693053
302.10192190116970323
302.12311467829948697
302.12383826984006419
302.09593652788009877
302.04038785587147231
301.96569576753910269
301.88315491574155658
301.79986429951691207
301.71817834840260275
301.6412697933826621
301.57824076431575122
301.54217685493966883
301.54306725578777559
301.57946885015212501
301.63713601067627224
301.69702920902795995
301.74700736364002296
301.78793711776961572
301.82934972709284693
301.8801605373264465
301.94060137581550407
302.00084506023631548
302.04570499506024817
302.06262093350301257
302.04635531692446193
301.9993117628971504
301.92900647336108477
301.84554713848490337
301.76037407866738249
301.68620961126850943
302.03465780208244951
302.05401962172317099
302.06601468342046246
302.05868229114059886
302.02959174619070382
301.98825567028552541
301.94897352944747126
301.92136635843377235
301.90374582515204338
301.88466986042817553
301.85303881546104776
301.80884145865360324
301.76397414079860937
301.73366264347049537
301.72495995168009131
301.73310649961177887
301.74676407704515668
301.75820828732304335
301.76955447726987813
301.78784823533857207
301.81665748200782673
301.85041153185159146
301.87568050463011105
301.87945916586818385
301.85733288806176233
301.81578238812261361
301.76772866799905159
301.725212370106874
301.69458824701951016
301.67671787366998615
301.67087492876504484
301.67764808497105378
301.84391529974340074
301.84961500352289931
301.84379145418353119
301.81463114513422852
301.76017559999155537
301.69304916665186056
301.63154693574813336
301.58905967950505556
301.56615187405623146
301.55020994212901542
301.52699615936870714
301.49307865109841487
301.45793681604658332
301.43406960721887344
301.42709513487881168
301.42950737852726206
301.42722592301367968
301.41147543936796183
301.38642362625722626
301.36460585992881533
301.35642737986796647
301.36262415053965924
301.37359246402445478
301.37740618452903618
301.36779862291353993
301.34693240293853478
301.32173594248808968
301.2973897740890834
301.27423784493123549
301.25024302661302045
301.22603208378274076
301.20720404083499488
301.20058874735065046
301.26631160536544485
301.28884492252518612
301.30379297792632087
301.30409169076870057
301.28830247437184653
301.27128357589032248
301.36018161464249943
301.36363681662641056
301.35664141899866308
301.3269794477212713
301.2734282879280272
301.20799023970215558
301.14927030466753877
301.11053044587958993
301.09153029198682816
301.07844733023046047
301.05657962951261197
301.02217422105985634
300.98509691993592696
300.95951242392760605
300.95186739063296955
300.95529212688853704
300.95552471407529538
300.94392746921420212
300.92492885321712492
300.91192140469632932
300.91545785386534817
300.9355394078868926
300.96114395325230362
300.9787507268198965
300.9813170093196959
300.97093894194495078
300.95512636255767802
300.93948815997430302
300.92424296188119115
300.90713830692652664
300.88919887716696167
300.87691079108509484
300.87840213891666963
300.89584882431654478
300.61496078860619718
300.63920403479284005
300.65446254069945553
300.66271684515731977
300.65625313313609013
300.633992536685696
300.61133504972821129
300.82675353541645791
300.83952861013204938
300.84148862026580673
300.82003176686254164
300.77425199296868641
300.71590694973798463
300.66444033057894103
300.6335642155277128
300.6228069645086407
300.6183270039063018
300.60472106787517532
300.57800685403674379
300.5481382855417678
300.53028713584632214
300.531048475972284
300.54337603256783495
300.55235724531587493
300.5491382322313143
300.53814607357077193
300.53325964277263438
300.5453118193379396
300.57397862301183977
300.60781916737931851
300.63274149163305538
300.64186258167632104
300.63762963760513003
300.62800145810354024
300.61887469999913947
300.61020073384190709
300.59924835887017025
300.5869539156404926
300.58005026042809504
300.58737448928320646
300.61116343204264467
300.64294411924782935
300.12733001480518169
300.14018542763801634
300.15043556967032146
300.15783701441165476
300.1627253553165815
300.16528743707266358
300.16610421966942113
300.16518162957549976
300.16394906565352585
300.16053022820688057
300.1578668511028809
301.34670066684338963
301.36452459409690618
301.41532793795460066
301.49557253787020272
301.59634780256857312
301.70415117185513054
301.80337126443839679
301.88043750133283538
301.9256162088948372
301.93314694423446554
301.9002788648571709
301.82587696143605172
301.7114628596075363
301.56272509598778697
301.38914347473155431
301.20166796512711471
301.00928765616612282
300.81795196213886356
300.63132665028331303
300.45261806336293375
300.28725679054781494
300.14339894585776847
300.02896170301846723
299.9476577796476704
299.89634413531166501
299.86591597719717583
299.84522618426075269
299.82505284640882337
299.80056096822295331
299.7716412483904378
299.74190499782281449
299.71658495530016353
299.70076974856829111
299.69713391462181562
299.70482094983475463
299.7195786956706911
300.04539394479786552
300.04429794485247385
300.04665252471386339
300.05271825658115858
300.06238251149466123
300.0751168505764781
300.08989712639510117
300.1055628703402931
300.12099591215309147
300.13519395333560169
300.14746343129291972
300.15732525928331142
300.16473521480111231
300.16973454376642394
300.17259593759104064
300.1735037029278601
300.1727656745844115
300.17019040177649458
300.16722805243011862
300.16189369067990356
300.15767655583454143
301.33378442579601142
301.3593921164922449
301.42283441222986085
301.51742344802551088
301.63125788078605183
301.74773333477611459
301.85041516343727608
301.92623001014266038
301.96706157097247569
301.96909525851583567
301.93009188118077191
301.84900226438139725
301.72712162171706041
301.56939986679657295
301.38539783655625115
301.18775868710912391
300.98856630904492704
300.7961780781423613
300.61451776864828389
300.44521882058347728
300.29070855273590723
300.15572579233918304
300.04577644837331718
299.96348068586883073
299.90655672016680455
299.8683868619579016
299.8407146707360198
299.81592080009522761
299.78906878610411013
299.75941937696603645
299.72969890731246778
299.70494793741931971
299.68997367484496408
299.68757279729976517
299.69680913804421607
299.71294879534320899
300.05981225641880883
300.0615420695015132
300.06653100077801355
300.07483374616805349
300.08608681771806914
300.09935661145829044
300.11357980992374905
300.12780634896392939
300.1412106518673113
300.15306880390357946
300.16292197733935154
300.17043648677559986
300.17552939456453487
300.17832868356902054
300.178965681644911
300.17769401054988521
300.17472822079560046
300.16979897476687711
300.16442980221245307
300.15666751245674959
300.15049798015894567
301.3596950205946996
301.43753969086475308
301.54768119438006124
301.67306621167824687
301.79449929408775688
301.89415456086561562
301.9601935305362872
301.98734387264028101
301.97445029527563065
301.92225755401000242
301.83148556649086913
301.70345252754736975
301.54217217824708541
301.35651318151116129
301.15926405101919272
300.96344591488366405
300.77836491791504159
300.60760762808348545
300.4517178664406174
300.31051286643531739
300.18477974438025058
300.07707912588455201
299.98932192532146246
299.92136970964895681
299.87075630724302755
299.83296082217515277
299.80233506497347662
299.7739185000591533
299.74558462270522341
299.71869686003157085
299.69720751398483571
299.68555856950649741
299.68608928306508687
299.69748225759633442
300.07862657959930175
300.0843407734036532
300.0929672475643315
300.10367249652426835
300.1157471345792942
300.12859223454501034
300.14144298577207337
300.15347785923609081
300.16392880788458797
300.17236774080856776
300.17853346277257742
300.18223187087340875
300.18351591681960144
300.18220569720955382
300.17854137953293048
300.17276949040928002
300.16480860116365648
300.15652801616255374
300.14627792782124516
300.13838559975272346
301.35351795794809959
301.44474378801839975
301.56970716479605699
301.70818305025591144
301.83801000326963049
301.93963085811566316
302.00052783812236612
302.01510074842718723
301.98337765152751899
301.90819503595514561
301.79283386449742466
301.64111854508121269
301.46008464791452752
301.26044429358535126
301.05554632604946619
300.85881787803288034
300.67978613233333363
300.52242167630282665
300.38559916796145899
300.26530394068709029
300.15761860877790923
300.06054263542063154
299.9744953416362705
299.90167180608176523
299.84372168587509577
299.8000156721283247
299.7671464103211747
299.74091896931935253
299.71791454572991142
299.69773569569258598
299.68330757687283494
299.67803457168440673
299.68348423495547195
299.69828986810222204
300.09247427230320682
300.0969217324761189
300.10333651030367719
300.11175661880878351
300.12196525820326087
300.13333631730216666
300.14508031351761019
300.15642058437538253
300.16651272950673501
300.17472038783489552
300.1805763411011867
300.18365688848615491
300.18394924825514636
300.18104429353269325
300.17522110694960702
300.16682982663820667
300.15601028682664264
300.1449724431210484
300.13253112366095365
300.12333415153267424
301.47351400141985778
301.58756442456655122
301.71164344835750626
301.82753136434223507
301.91921727880088611
301.97686633663454359
301.9963451079112815
301.97665830654699448
301.91943589423539152
301.82593949851235493
301.69764165350431995
301.53825656150246459
301.35520182424892255
301.1592208447910366
300.96256013075975488
300.7763957615865138
300.6082378790445091
300.46038317885808056
300.33062383404507045
300.21445641836731966
300.10863572202748628
300.01244885160770082
299.92842813084752152
299.85922411915794328
299.80599302811862117
299.76655710906675267
299.73696467881768513
299.71337745184462165
299.69458426793437411
299.68205198247142107
299.67845706519398163
299.68521267609526149
300.10243935545781824
300.1060112149847896
300.11201705125091621
300.12025159767307514
300.1301291514012064
300.14082262938387657
300.15153445087941009
300.16138685821698573
300.16959766176483981
300.1754213142112917
300.17808515542719761
300.17749696953126204
300.17317072317774773
300.1655591729987691
300.15521647589559961