/*--------------------------------*- C++ -*----------------------------------*\
  =========                 |
  \\      /  F ield         | OpenFOAM: The Open Source CFD Toolbox
   \\    /   O peration     | Website:  https://openfoam.org
    \\  /    A nd           | Version:  12
     \\/     M anipulation  |
\*---------------------------------------------------------------------------*/
FoamFile
{
    format      ascii;
    class       volScalarField;
    location    "0.014";
    object      alphat;
}
// * * * * * * * * * * * * * * * * * * * * * * * * * * * * * * * * * * * * * //

dimensions      [1 -1 -1 0 0 0 0];

internalField   nonuniform List<scalar> 
106891
(
1.2432829092243515904e-05
1.2402379736964033835e-05
1.2310617598682052124e-05
1.2093133901252821908e-05
1.1883857668753349427e-05
1.1721279827867097143e-05
1.1609592966682782974e-05
1.1544834535947903143e-05
1.151465183540035683e-05
1.1503717535988316611e-05
1.1493908409496903075e-05
1.1457336733328509583e-05
1.1541276833022607381e-05
1.1613027854853876186e-05
1.1671613429282026072e-05
1.1722145842371900007e-05
1.1771345433491511425e-05
1.1822996694432984821e-05
1.1878264758576086282e-05
1.1934838566475401467e-05
1.1988099834242194327e-05
1.2031760252726744913e-05
1.2061111466545329453e-05
1.2075323643602159674e-05
1.2076236053090710362e-05
1.2069185653623768555e-05
1.2058945005102399885e-05
1.2048502970183694663e-05
1.2032870018083202248e-05
1.2000777530414266832e-05
1.196988168222131509e-05
1.1949618548741805046e-05
1.1938096237955482707e-05
1.1930761010351058728e-05
1.1929926681550341472e-05
1.1952235239145823632e-05
1.2016926720853814749e-05
1.2073897834762128175e-05
1.2117166100544406773e-05
1.2151589410175839129e-05
1.2182322641741243289e-05
1.221422002218358495e-05
1.2251464498246725557e-05
1.2295158311636066373e-05
1.23448462653998948e-05
1.2396973131740160367e-05
1.2447990172046277226e-05
1.2491944082718264689e-05
1.2526631103680161013e-05
1.2944744854647224856e-05
1.2988310292477638782e-05
1.3024199979504506153e-05
1.3056601478069212888e-05
1.3085254640212242412e-05
1.310735121966836261e-05
1.3119157722434004706e-05
1.3120291981983236699e-05
1.3112704113821837775e-05
1.309990191115568167e-05
1.3069263531261562415e-05
1.2975811255547248704e-05
1.2746616141502371074e-05
1.2522700630475070642e-05
1.235089842233035151e-05
1.2234672715170852645e-05
1.2168584161452574241e-05
1.2138621904784741262e-05
1.2127754850385136213e-05
1.2118392688881896439e-05
1.2164249959942408859e-05
1.2267268443097403111e-05
1.2343047571614187939e-05
1.2398772399402308592e-05
1.2442774174229858722e-05
1.2484218139453711176e-05
1.2528407703127720574e-05
1.2576997551119061639e-05
1.262795131220463092e-05
1.2676474488659514553e-05
1.2716459036860941421e-05
1.2743308712943036379e-05
1.2756469640523167942e-05
1.2757150939819914795e-05
1.2750373665165566574e-05
1.2740870801496887867e-05
1.2729619795269308172e-05
1.270586763636079929e-05
1.2661550155690546744e-05
1.2626361846199536204e-05
1.2603992728474490737e-05
1.2591478333016960697e-05
1.2583527221871516701e-05
1.2581159534044305634e-05
1.2598147412523408089e-05
1.2647644310720148098e-05
1.2693340998773850088e-05
1.2734342435372188052e-05
1.2774316508671202446e-05
1.2815684182293358398e-05
1.2860835378445509657e-05
1.291062978731335926e-05
1.2963318679049321602e-05
1.3017297964342294163e-05
1.3069847851601270401e-05
1.3117009701204153027e-05
1.3667145563560005014e-05
1.3697898112894671454e-05
1.3719471153405254831e-05
1.3739568138033893984e-05
1.3759637329303808415e-05
1.3776993405893173461e-05
1.3786971739924026086e-05
1.3787615738708762495e-05
1.3779813217548207092e-05
1.3767003345344924764e-05
1.3738378274453213665e-05
1.3653341296728500092e-05
1.3431479756056878162e-05
1.3200613689326844898e-05
1.3023798177528864701e-05
1.2904374192518002195e-05
1.2836671048623666405e-05
1.2806099677750449676e-05
1.2794582672900105599e-05
1.2785606509415978549e-05
1.2971446342701526013e-05
1.3065545360664743726e-05
1.3129027263396341436e-05
1.3171990976595180969e-05
1.3204676359562491153e-05
1.3234373122815961651e-05
1.326628718620776727e-05
1.330179769952936645e-05
1.3339931491676841109e-05
1.3378673924244580105e-05
1.3415213037045984224e-05
1.3445760678312122278e-05
1.3467296566572462387e-05
1.3478727361463243857e-05
1.3479856921556643165e-05
1.3474034094139893724e-05
1.3465271413420134292e-05
1.3452556304220356949e-05
1.3423181736080819966e-05
1.3386074291456894294e-05
1.3360625215724918028e-05
1.334506942469996725e-05
1.3335606619666715128e-05
1.3329063785147508481e-05
1.3333417578895363933e-05
1.3369394645727814976e-05
1.3420157852233851247e-05
1.3465795781852844167e-05
1.3510885192050631567e-05
1.3557143951697046339e-05
1.3605246406967286827e-05
1.3654789449499644681e-05
1.3703526212093005877e-05
1.3751105717065578802e-05
1.3797067000066639623e-05
1.3840203500124427079e-05
1.4468633970631680788e-05
1.4469371075679571262e-05
1.4475889111848482817e-05
1.4489169453106951629e-05
1.45044449325922568e-05
1.4514919163708150769e-05
1.4516336616197514622e-05
1.4508690281182408862e-05
1.449544482229797128e-05
1.4465527337762515355e-05
1.4376338825166387362e-05
1.4143772482681821634e-05
1.3902194040677643344e-05
1.371779948906542263e-05
1.3593729718532102273e-05
1.3523665462371758605e-05
1.3492219558175097991e-05
1.3480143792604679399e-05
1.3471624810510308455e-05
1.35631407587895275e-05
1.3631509742775616879e-05
1.3697476217968756828e-05
1.3766030395492070485e-05
1.3838614822323473127e-05
1.3912647835146349067e-05
1.3982438734018939083e-05
1.40422578964148157e-05
1.408806169044936919e-05
1.4117661767414545828e-05
1.413209044711053986e-05
1.4134341879005711873e-05
1.4128672734848912851e-05
1.4118988710404524052e-05
1.4108564413453077377e-05
1.4096575490110506971e-05
1.4074074676615156511e-05
1.4042413304978231141e-05
1.4018678762203900276e-05
1.4002798336636118249e-05
1.3992428837651166277e-05
1.3985997210672572376e-05
1.3994491133047939029e-05
1.4042775155351785719e-05
1.4099922557687094357e-05
1.4145799255128964678e-05
1.4187205986177809784e-05
1.4229464106779812318e-05
1.4275746036495734595e-05
1.4327754854347913053e-05
1.4382687067088277083e-05
1.4438211465811203957e-05
1.4490030464668170656e-05
1.4534742009542195285e-05
1.5166192084401769995e-05
1.5162853771732246678e-05
1.5163836179672744519e-05
1.5179537492296969059e-05
1.5211273678288019971e-05
1.5244523562137265112e-05
1.5269908981959199993e-05
1.5281287995529322206e-05
1.5277985381102648005e-05
1.5266200375229113765e-05
1.5241186971397303489e-05
1.5167475167389985261e-05
1.4953293213161957244e-05
1.4693668011718765613e-05
1.4494213389646521021e-05
1.4358861372478626053e-05
1.4281530475180064896e-05
1.4246414388376193357e-05
1.4232818648846778213e-05
1.4223596737263290862e-05
1.4130810875786930074e-05
1.4204727758283686398e-05
1.4280203877263143985e-05
1.4362293938847578797e-05
1.4452635712930547292e-05
1.4548623825215402442e-05
1.4644277656511046283e-05
1.4732756542425594996e-05
1.4808190084768439276e-05
1.4866234927886847972e-05
1.4905421119875907984e-05
1.492685558378330949e-05
1.4932974065704457238e-05
1.4929056716307127406e-05
1.4920069873559345801e-05
1.4909058381759115818e-05
1.4889427192480526527e-05
1.4847889883748224441e-05
1.4808585374275510667e-05
1.478049712445420398e-05
1.4761925082163319172e-05
1.4749815723622838756e-05
1.4740768430765153243e-05
1.4741237348035871795e-05
1.4768831550340781944e-05
1.4814560096105133401e-05
1.4861486307071274771e-05
1.4913460546232092373e-05
1.4972754994026574849e-05
1.503737506616761616e-05
1.5104734426523622781e-05
1.517037197193761012e-05
1.5229207115976320985e-05
1.5804786148738043532e-05
1.583360558608215801e-05
1.587837297623432542e-05
1.5934381843886835612e-05
1.599087196593158581e-05
1.6035499814675807352e-05
1.6060385837398793041e-05
1.6063956798684788068e-05
1.6053642470097864519e-05
1.6032743714661895054e-05
1.5973195510596425366e-05
1.5788074769278891461e-05
1.5515962848484447881e-05
1.5302319249828891045e-05
1.5155653753431389498e-05
1.507041063134061977e-05
1.5030862779930632695e-05
1.5015329996630188291e-05
1.5005130921527540122e-05
1.5054437962973142261e-05
1.5101468372045080154e-05
1.5159602596082658745e-05
1.5229486354845520879e-05
1.5308768934033341796e-05
1.5392274759232677005e-05
1.5473718817651528997e-05
1.554716212012612639e-05
1.560745662939501654e-05
1.5650938523437935121e-05
1.5677050457652557958e-05
1.5686776205365317972e-05
1.5684985375759765428e-05
1.5676738081410612503e-05
1.5666106106523160311e-05
1.5648461177833257083e-05
1.5610251225608646385e-05
1.5567399881164105976e-05
1.5534078852554640565e-05
1.5508958953506569479e-05
1.5491007007514202474e-05
1.5478232388469998735e-05
1.5467570805214017924e-05
1.5462214993123136168e-05
1.5473602186382145324e-05
1.553179155419977077e-05
1.561664148970581112e-05
1.5700359254300233643e-05
1.5782383791994819913e-05
1.5862181265523314373e-05
1.5937798752973238132e-05
1.6007061569769516995e-05
1.6481313276711047263e-05
1.6521064986551906267e-05
1.658040573429485931e-05
1.6654750206041843619e-05
1.6731373196552152172e-05
1.67927689564296363e-05
1.6829904448982943241e-05
1.6842305021092722988e-05
1.6835362088431853294e-05
1.6818458337111327186e-05
1.6775695288014023492e-05
1.6641896998569065722e-05
1.637266273309392683e-05
1.614764752413120732e-05
1.5989972754977001111e-05
1.5896593954727806564e-05
1.5852546315289434365e-05
1.5835185683460540571e-05
1.5824638303151904135e-05
1.5945015941793807862e-05
1.6029772337886077942e-05
1.6119910122059418199e-05
1.6209837164924226373e-05
1.6293851680626110685e-05
1.6366536511675362992e-05
1.6424087881510646082e-05
1.6464139543661196062e-05
1.6487748902566188441e-05
1.649712786531371957e-05
1.6496104199527596498e-05
1.6488558646140762587e-05
1.6478185140446634477e-05
1.6466041971725402698e-05
1.6444660308371505139e-05
1.6402844974096097351e-05
1.636424488314864521e-05
1.6335391757803418346e-05
1.6315513377593842553e-05
1.6302310970171397488e-05
1.6292418823754715941e-05
1.6291931923377961876e-05
1.6320705122095508069e-05
1.6399396018763575441e-05
1.6479253052404835457e-05
1.6555878989804526373e-05
1.6629454209877577803e-05
1.670065403617307907e-05
1.6769094157307596596e-05
1.683225382812609058e-05
1.7264516279453175242e-05
1.7289209010782941207e-05
1.733597521425083758e-05
1.7402107952813294619e-05
1.7474257371903624254e-05
1.7531583651242674179e-05
1.7557879901150118696e-05
1.7555998047591529201e-05
1.7541057554660822543e-05
1.7507430140759958743e-05
1.7406552134043735416e-05
1.7171006772794953135e-05
1.6960878543332691127e-05
1.6816123656014135362e-05
1.6733223464801253073e-05
1.6696108279012635375e-05
1.6681444900466593919e-05
1.6677771836585428218e-05
1.6849100765313198359e-05
1.6947791512699220075e-05
1.704600813716467095e-05
1.7141131803747868624e-05
1.7227432456707904827e-05
1.730112872779615587e-05
1.7358204735911010206e-05
1.7395833290836948821e-05
1.7412277998033347845e-05
1.7411983753029524333e-05
1.740180173504611081e-05
1.7388886159729360535e-05
1.7370969057828757455e-05
1.7334336428491104408e-05
1.7290060906642185779e-05
1.72564682193466244e-05
1.723265014795187687e-05
1.7217052673359727727e-05
1.7205363494671562847e-05
1.7197795806296886043e-05
1.7204873255282399389e-05
1.7257540461611629433e-05
1.735822621464252669e-05
1.7455113608148758666e-05
1.7545625093239898003e-05
1.7629478674664599707e-05
1.7704978938854541406e-05
1.7770005569029596486e-05
1.8036303539184603029e-05
1.7987406422314557267e-05
1.7966692497276505924e-05
1.7959290034032786314e-05
1.7982592739062681729e-05
1.8087931766564690079e-05
1.8188296348732475849e-05
1.8233489780042447134e-05
1.8235167598625787844e-05
1.8217307178750289547e-05
1.8169935069367715145e-05
1.8023011772334341686e-05
1.7818455005865458345e-05
1.7675743411469291879e-05
1.759436073768359861e-05
1.7558229138452986773e-05
1.7543847780891510391e-05
1.7547763397713065411e-05
1.7751330000396963013e-05
1.778673523049661753e-05
1.7823118725591842812e-05
1.7868593202710123641e-05
1.7923834889180773831e-05
1.7985856883546423081e-05
1.8047629855843308748e-05
1.8100165197141586431e-05
1.8136811664574751347e-05
1.8156210978330573799e-05
1.8160528246831113166e-05
1.8154851161852899282e-05
1.8144648547674678595e-05
1.8132985727380137659e-05
1.8122002025504649022e-05
1.8112612117372470705e-05
1.8108915662564078856e-05
1.8126406948506938212e-05
1.8197939755393913706e-05
1.8278818502633394088e-05
1.8345354501314548815e-05
1.8399189067453673599e-05
1.8440577455148507061e-05
1.8471731443863102356e-05
1.8493344959573452917e-05
1.8508761543808245273e-05
1.8522191818102810374e-05
1.8462316516749652554e-05
1.8419982855919146784e-05
1.8405469453371129442e-05
1.8410212370505538187e-05
1.8485805344028999878e-05
1.8659761730529007156e-05
1.8776390191810764707e-05
1.8827110724245820037e-05
1.8829432857160016121e-05
1.8811343924157250274e-05
1.8766431237347652955e-05
1.8647591846674767035e-05
1.8528365151450332509e-05
1.8458208221876784777e-05
1.8426096645910668067e-05
1.8412207996978994194e-05
1.8423193779703207225e-05
1.8512769711716132418e-05
1.8491241014625913304e-05
1.843578682965563159e-05
1.8345520148551144619e-05
1.8284058626791490921e-05
1.8250989329112092085e-05
1.8233721427889588225e-05
1.823052341724050221e-05
1.8286512553067213195e-05
1.8458324019180049496e-05
1.8613626020483620149e-05
1.872975516744655695e-05
1.8816137807093292811e-05
1.8884170177024250654e-05
1.8943252675583870743e-05
1.9000254645695200301e-05
1.9056282364096394002e-05
1.9110111092044504172e-05
1.9157327436469373511e-05
1.9195313419718839932e-05
1.9221817688746663065e-05
1.9236299845731916219e-05
1.9238020873471836408e-05
1.9227343767678281713e-05
1.9210346495083182347e-05
1.9189682733238723732e-05
1.915680993155682743e-05
1.8041809567193971682e-05
1.8011771966578433952e-05
1.8008424604505948155e-05
1.8059997497032114844e-05
1.82998927960079524e-05
1.8682540227694018753e-05
1.8955167448412717527e-05
1.9117124122201930474e-05
1.9192310212165832343e-05
1.9212345490902551197e-05
1.9205262762764353188e-05
1.918969901158661199e-05
1.9174580379503353833e-05
1.916516028047801439e-05
1.9175200243399727503e-05
1.9225134393671026799e-05
1.4675474984858012428e-05
1.4554255294635810424e-05
1.4452877962144679617e-05
1.4373809763695039951e-05
1.4318636962753327008e-05
1.4286036200159559111e-05
1.4268023830076209102e-05
1.4256437537559777499e-05
1.4258370771219170301e-05
1.4307541182145795878e-05
1.4464486410509224139e-05
1.4640841115315754225e-05
1.4800682034108220597e-05
1.4946552307304128101e-05
1.5076421171799350089e-05
1.5188925007770503667e-05
1.5280452623803901442e-05
1.5348252567416497603e-05
1.5390860176922125654e-05
1.5409658884087143135e-05
1.5409735296115455839e-05
1.5399571943608311416e-05
1.5384151540654103399e-05
1.5355530923750423152e-05
1.5286903261840570074e-05
1.5165565478952552537e-05
1.5052595641416185676e-05
1.4958219634173981478e-05
1.4487920658730327051e-05
1.4480342788371620329e-05
1.4493133596698282625e-05
1.4575681834723313635e-05
1.4828420801849922757e-05
1.5108582857428620304e-05
1.5338025415757627684e-05
1.5518238624545676685e-05
1.565148526011465299e-05
1.5743220025207341385e-05
1.580097828957979523e-05
1.5831562230410704004e-05
1.5843274177345426204e-05
1.583803248151601184e-05
1.5841167017024884289e-05
1.3914553915309571433e-05
1.3900352373150351589e-05
1.3861534032803609772e-05
1.3809910707637828192e-05
1.3775608411115895278e-05
1.3755981886176475745e-05
1.3744021736188830014e-05
1.373950076061767307e-05
1.3760200712134814638e-05
1.3837160088683250983e-05
1.3921485240840428062e-05
1.3997712805412823963e-05
1.4069926726563784629e-05
1.4140803939807912082e-05
1.4208736232023930527e-05
1.4271674529293285492e-05
1.432638593654651961e-05
1.4371625663950665091e-05
1.4404629983555058292e-05
1.4424463986266016771e-05
1.4431763634872393589e-05
1.4428718864784383267e-05
1.4418832970916385333e-05
1.440597321050581401e-05
1.4390806529088167448e-05
1.4368859239101068636e-05
1.4332640161234710391e-05
1.3978548055014762531e-05
1.4000715827216934006e-05
1.4115780835775362586e-05
1.4324649260865962019e-05
1.4493794868280984183e-05
1.4619743324943133923e-05
1.4707621950879910333e-05
1.4765395601268552369e-05
1.4800704148290106909e-05
1.4821304438091258571e-05
1.4831777834963938615e-05
1.4835768461817475894e-05
1.4830032583395927369e-05
1.4831351866770698005e-05
1.3168943407307982709e-05
1.3137424647847033727e-05
1.3116362351632166751e-05
1.3103781121427517253e-05
1.3096472034149558785e-05
1.3110427605961762665e-05
1.3191989690791120033e-05
1.3311922298063818607e-05
1.3404201934100252227e-05
1.3472515199310934725e-05
1.3522382168231187498e-05
1.3559967335251780086e-05
1.3590437771023828142e-05
1.3617845974746349097e-05
1.3645035435879766233e-05
1.3672920045720672326e-05
1.3701898029160575844e-05
1.3729802016808371755e-05
1.375496252744849265e-05
1.3773951987683088206e-05
1.3784700775889757585e-05
1.378598083640608894e-05
1.3779384143602984461e-05
1.3767814018590486522e-05
1.3754248105033382279e-05
1.3734929171332819185e-05
1.3413801524726024368e-05
1.3562753619772787518e-05
1.3759550717050968722e-05
1.3904419776393727142e-05
1.4001417329988563652e-05
1.4058086794932277792e-05
1.4085059222666689184e-05
1.4092796793853282038e-05
1.4090837774811599718e-05
1.4085198229183998087e-05
1.4078907732233829047e-05
1.4070780197287178134e-05
1.4067810907278760322e-05
1.2649461781629377596e-05
1.2637560935188339671e-05
1.2627982607496558834e-05
1.2626399717189583407e-05
1.2656821527019481276e-05
1.2747975932692256421e-05
1.2832106874937961597e-05
1.2898594728786865642e-05
1.2952262403605738407e-05
1.2998313758343504746e-05
1.3040628762043668853e-05
1.3082288186961159846e-05
1.3123187237983482501e-05
1.3162164785583292727e-05
1.3197179749853194853e-05
1.3225863634659271875e-05
1.3246315954745109241e-05
1.3257716125961099566e-05
1.3260830828241967422e-05
1.3256985790140308251e-05
1.3248605981786140676e-05
1.3238050471470794411e-05
1.3225402805105420395e-05
1.3207808965023143697e-05
1.318482998757779759e-05
1.3003442437185931755e-05
1.3193749805082423637e-05
1.3330434638631496902e-05
1.3417870690891544613e-05
1.3464362712042184407e-05
1.3481291398890440342e-05
1.3480608660004978665e-05
1.347270467974220872e-05
1.3462799417774704789e-05
1.3451484590672289294e-05
1.3441065902331476308e-05
1.3435857944812569175e-05
1.2227203570392657835e-05
1.2215824860146018286e-05
1.2210052225320031086e-05
1.2225651027388342602e-05
1.2301170618939449318e-05
1.2392249562653607595e-05
1.2460051882683199071e-05
1.2511092838231093475e-05
1.255208987056615127e-05
1.25892276257723664e-05
1.2625330496569788622e-05
1.2661559844871355133e-05
1.2697309189330600927e-05
1.2730845845510590096e-05
1.2761199024579770924e-05
1.2786583606924567522e-05
1.2806302249100714446e-05
1.2819298336767251043e-05
1.2825506879243546039e-05
1.2824683638956109984e-05
1.2818367134947595618e-05
1.2808423219097772694e-05
1.2796911794861407562e-05
1.278147821754310356e-05
1.1699452511964776206e-05
1.1701187819980459962e-05
1.1740631505055028469e-05
1.1838801083072632926e-05
1.1922535579776390594e-05
1.1985972335606508848e-05
1.203396528866392536e-05
1.2071906667299735452e-05
1.2104867531816134021e-05
1.2135346126501912251e-05
1.2165768919338651466e-05
1.2196149943954625201e-05
1.2226367278730760358e-05
1.2256264344531393016e-05
1.2283794865639595777e-05
1.2307616266952012561e-05
1.2324946410899726809e-05
1.2334566787098318015e-05
1.2335639491326074967e-05
1.2330180548266442126e-05
1.23209811451946583e-05
1.2309465164058996584e-05
1.2291720488215629367e-05
1.1324603891166600998e-05
1.1369560850166841377e-05
1.1446595283558735711e-05
1.1511339220309626733e-05
1.1565382366945990995e-05
1.1612037987690216446e-05
1.1653288012580043095e-05
1.1690604684719359651e-05
1.1724143502797169548e-05
1.1753250347443348233e-05
1.1777634253887855022e-05
1.1797143151919535186e-05
1.1811329760915516681e-05
1.1820224164053298613e-05
1.1823664987687004834e-05
1.1822580676741223173e-05
1.181767892316534278e-05
1.1810199867522579162e-05
1.1801353362704685048e-05
1.1790605657766762928e-05
1.1778813076398572402e-05
1.1117432725870117643e-05
1.1170280311722299572e-05
1.1218440261152314591e-05
1.1263840044213525616e-05
1.130657869772637268e-05
1.1345443279325308737e-05
1.1377387923947882418e-05
1.1400128923800813231e-05
1.1412283986048093811e-05
1.1415673425361993378e-05
1.1412608132299510922e-05
1.1406160673801060356e-05
1.1398388947502840083e-05
1.1389692286976299231e-05
1.1378360877379301822e-05
1.1362140363881107399e-05
1.1345937374607605871e-05
1.081894901131749833e-05
1.085845301096891834e-05
1.0893978551645149444e-05
1.0924265943232759971e-05
1.0949141330849915948e-05
1.0967949894669161526e-05
1.0980678032675413586e-05
1.0986851174674425335e-05
1.0987592694122198499e-05
1.0983425036002865012e-05
1.0976324149651622112e-05
1.0967845046603434293e-05
1.0956152318482445678e-05
1.0466719646548196756e-05
1.0483784034045790391e-05
1.0501496616325832996e-05
1.0520372137344293628e-05
1.0539758521789597406e-05
1.055781687276640913e-05
1.0571852794348173763e-05
1.0579539194836916593e-05
1.058043022373741884e-05
1.0575799843287513467e-05
1.0568355960999052301e-05
1.0559420650565004237e-05
5.3857648896607587225e-06
5.4491813191187624449e-06
5.6788038343668481564e-06
6.0762596803510934821e-06
6.3865391036562589334e-06
6.5969274622065728967e-06
6.7183746954501718832e-06
6.7722254464171793083e-06
6.7838461150894185716e-06
6.778659751880295298e-06
6.7646533505594798501e-06
6.7227210088224656029e-06
6.647468012678632522e-06
6.5759907075996998311e-06
6.5024578052358869619e-06
6.4202638741092750817e-06
6.3280336077351660021e-06
6.2318541367350086739e-06
6.1408119064518187298e-06
6.0655289106837476944e-06
8.2585335513782595548e-06
8.3259078433649237675e-06
8.5671421713911499458e-06
9.0553431528596268249e-06
9.4642959915483197117e-06
9.7507348824726119762e-06
9.9185606490154457277e-06
9.9881055479285395742e-06
9.9998031139887730306e-06
9.9901336993050392492e-06
9.9592721719915355404e-06
9.8666929018876984615e-06
9.7629045235906146281e-06
9.6969830101535540117e-06
9.6526123343269968355e-06
9.607731922739245361e-06
9.5416031199329570618e-06
9.4472030002888211098e-06
9.3305936755661628612e-06
9.2049646406941600341e-06
9.0939258717576470576e-06
9.0167578493695338941e-06
1.5479827192982895302e-05
1.560774004080698021e-05
1.5906451236014106288e-05
1.6269707102793824863e-05
1.6641167223227420953e-05
1.6968750020351900287e-05
1.7215986677736686423e-05
1.7371989332195814239e-05
1.7432866149132521179e-05
1.7441458964277144531e-05
1.7428497181856956701e-05
1.7391637169965742184e-05
1.730273870990749847e-05
1.7234155628694316793e-05
1.7197434204125740205e-05
1.7179281877504840324e-05
1.7170506747794771213e-05
1.7181024014362832058e-05
1.7200059964273036736e-05
1.7208330443280399726e-05
1.7209554099878634885e-05
1.7209307730309005675e-05
1.7213757053168322604e-05
1.7232013744686419643e-05
1.7285849226674348557e-05
1.7439855325110732753e-05
3.5804939528455439709e-05
3.6318843934147785018e-05
3.6870504555295667158e-05
3.7418130546134733866e-05
3.792759886642079999e-05
3.8352419410029656827e-05
3.8664218420199496814e-05
3.8855263648484452787e-05
3.8924521713796792952e-05
3.8923845116016684534e-05
3.8893525344749834229e-05
3.8847858963847995859e-05
3.8812413323379896571e-05
3.8792529382809158795e-05
3.8808220238567100904e-05
3.892534308998876248e-05
3.910237616930028467e-05
3.9251823421348007025e-05
3.9364594265582548451e-05
3.9459188684424011085e-05
3.9545598876623796775e-05
3.9667191264949114759e-05
3.9845273047943137804e-05
4.0110604442689578794e-05
4.0456697112306079381e-05
4.0877087972362150968e-05
4.1326382970811391772e-05
4.1758608731479478129e-05
7.4472737277148499902e-05
7.479055674488452256e-05
7.5072102001142682558e-05
7.5305454797644854974e-05
7.5487300202211780539e-05
7.5621367838368108976e-05
7.5711766724090407104e-05
7.5759618396650378917e-05
7.5765423637103062509e-05
7.5735351230454801092e-05
7.568807424383946754e-05
7.5646536602344332731e-05
7.5633996808489468836e-05
7.5659931820272027423e-05
7.5718594898077355606e-05
7.5793730041552584745e-05
7.5870837653805968458e-05
7.5944742340570866842e-05
7.6018362571876022145e-05
7.6102092868375977768e-05
7.6203377305254126539e-05
7.6325395838381155278e-05
7.6465910168496093271e-05
7.6617561299432960131e-05
7.6765286036749625655e-05
7.6899331539832490364e-05
7.7001061694095229953e-05
7.7058852277950328283e-05
7.7068459727748912748e-05
7.7037075070695049963e-05
0.00010849519408505579041
0.00010834476156964967393
0.00010814677237153496572
0.00010790563933081373104
0.00010762368444325223337
0.00010732114552264310084
0.00010702442885151988543
0.00010675396898801971842
0.00010651390005099155636
0.00010629320206320544894
0.00010607798725248712582
0.00010586573418822517955
0.00010566517589587002526
0.00010548732623562105226
0.00010533317267411131319
0.00010519184293913917401
0.00010504662220222471666
0.00010488846894523637799
0.00010472036935608902198
0.0001045528528165278571
0.00010439381714238616023
0.00010424048209252900158
0.00010408024127043816426
0.00010389901342796264245
0.000103688341552073788
0.00010344992016287260614
0.00010319264376903621841
0.00010292655185275345956
0.00010265985351695482023
0.00010239830397895980599
0.00010214950393652019929
0.00010192095974767330249
0.00012489036250809405055
0.00012452792439051246819
0.00012415704141613631908
0.00012376165783958701294
0.00012333947003241626096
0.00012290679854819736689
0.00012248681018325324201
0.00012209615957781727352
0.00012173357907223719102
0.0001213802397725635457
0.00012101737134935602023
0.00012064216407342230315
0.00012026876245023305719
0.00011991351514748244003
0.00011958200243337900007
0.00011926258740438373069
0.00011893778080440294811
0.00011859899726760149863
0.00011825337897314927007
0.00011791652165820091667
0.00011759962252515898217
0.00011730064910674505756
0.00011700591148127944575
0.00011670075002352739283
0.00011637885440390041594
0.00011604465647869725159
0.00011570747427054111571
0.00011537389362052403573
0.00011504449993263893856
0.00011471725952082038099
0.00011439436064672333065
0.00011408257655288950641
0.00011378989871475452998
0.00016524065991831770142
0.00016436353244165781895
0.00016349631211063096791
0.00016262073068646596156
0.00016172683186824892993
0.00016083681291495640839
0.00013167595396828697652
0.00013126553211024758546
0.00013084485678080710479
0.00013039488408765178618
0.00012991442023082405959
0.00012942174192550801558
0.00012894446592452981043
0.00012850141166052730306
0.00012809035294155751922
0.00012768906149955417772
0.00012727609477380350282
0.00012684815405498669257
0.00012642086617153621472
0.0001260133765441842483
0.00012563190805633559985
0.00012526424011373056013
0.00012489166208458531149
0.0001245052685282569641
0.00012411486760363963202
0.00012373957594136528052
0.00012339179894170574639
0.00012306747808378857385
0.00012274935231683498072
0.00012241936754470969561
0.00012207049163149132423
0.00012170752811215514101
0.00012134125701783208206
0.00012097795746186587183
0.00012061708009155894174
0.00012025604174625407247
0.00011989761082895822244
0.00011955185882170419026
0.000119228685959733857
0.0001189287639658782945
0.00016088326358301610185
0.00016009529482677648166
0.00015929989006569574179
0.00015849920795458328311
0.00015767823435311497499
0.00015683924059473622553
0.00015601419079368312646
0.0001294073520314720639
0.00012897125493769429593
0.00012851020231594527518
0.00012801789734176883401
0.00012750981137055804955
0.00012701504712271487196
0.00012656135899429096954
0.00012615641876817209254
0.00012578384238239766744
0.00012541381643061197274
0.00012502778883226068219
0.00012463093611497406163
0.00012424456283866296309
0.00012388541518559874821
0.00012354992289495005629
0.00012321737341344448941
0.00012286870240661539174
0.00012250251578735501991
0.00012213561816020314203
0.00012178671431231099078
0.00012145953141535004226
0.00012113952888725310509
0.00012080391101996796211
0.00012043729989078931096
0.00012004142910270742552
0.00011962996563173784888
0.00011921867077207195661
0.00011881475443519219301
0.00011841690444215608293
0.0001180231324260692065
0.00011763700253315901114
0.00011726784788742175927
0.00011691856404836811951
0.00011658028668920694573
0.00011623377696275437104
2.6855793793176750628e-06
2.6879825822308364446e-06
2.6827807529417185455e-06
2.6608820412066664903e-06
2.5827494865227925508e-06
2.474874822949236102e-06
2.3984677381278969554e-06
2.3543216625890894663e-06
2.3358617838270932781e-06
2.3319424950526890028e-06
2.3325585958413025136e-06
7.3953385466645649102e-07
7.3869568663467028473e-07
7.3685626246011564381e-07
7.3213308314207822815e-07
7.2733059987376640987e-07
7.2455569336133834376e-07
7.231341411300546867e-07
7.223912925246401641e-07
7.2183897664078323197e-07
7.2128113216542356352e-07
7.207298859613020615e-07
7.2028782829228312688e-07
7.2056356338294210897e-07
7.2439907452556735135e-07
7.390689971309818144e-07
7.551381157447578106e-07
7.6389962326823861886e-07
7.6687353234512138888e-07
7.667645721149138166e-07
7.6594580323538873074e-07
7.6532790857381370161e-07
7.6635756747449399025e-07
7.738541891538672005e-07
7.8645229105861748942e-07
7.9484170541972047548e-07
7.9934911656033557853e-07
8.0131000384777042606e-07
8.017822077367038708e-07
8.0145119457882818012e-07
8.0076780045486315457e-07
7.9979658681575154936e-07
7.9796636177187727481e-07
7.9397075642502223144e-07
7.8931181036550664769e-07
7.8512565868909403478e-07
7.8185245251241573522e-07
2.6638441024990573204e-06
2.6627817395928519986e-06
2.6549569024173853683e-06
2.6392149610924790867e-06
2.6332573867232594671e-06
2.6339965131185334251e-06
2.6516604193689388057e-06
2.7300655422345473034e-06
2.8415858986305350504e-06
2.9113945801974870188e-06
2.943987426641153139e-06
2.9506851894819921661e-06
2.9462174279278882353e-06
2.9257106122289811241e-06
2.8459735395291840319e-06
2.7053796268953091295e-06
2.5973527060897300878e-06
2.5293476429371914487e-06
2.4959354048909776506e-06
2.4861488213903608206e-06
2.4827534124681976298e-06
7.5523449171940790492e-07
7.5293168057721426707e-07
7.5174250916741677927e-07