/*--------------------------------*- C++ -*----------------------------------*\
  =========                 |
  \\      /  F ield         | OpenFOAM: The Open Source CFD Toolbox
   \\    /   O peration     | Website:  https://openfoam.org
    \\  /    A nd           | Version:  12
     \\/     M anipulation  |
\*---------------------------------------------------------------------------*/
FoamFile
{
    format      ascii;
    class       volScalarField;
    location    "0.014";
    object      k;
}
// * * * * * * * * * * * * * * * * * * * * * * * * * * * * * * * * * * * * * //

dimensions      [0 2 -2 0 0 0 0];

internalField   nonuniform List<scalar> 
106891
(
0.035323075813348786545
0.035204256678511056111
0.034743905366675473245
0.033585093732162972502
0.032485209464740552598
0.031653819451599840562
0.03110332992073522318
0.03080621954126053566
0.030693150960790786114
0.030682117879808547267
0.030675251005533581139
0.01842988141743929012
0.018731517516021152503
0.018996240441070656735
0.019219512353219881523
0.019416966559110099277
0.019609820360579253984
0.01980993986004843041
0.020020915973288418849
0.020235582269726788002
0.020439862798379095088
0.020614583258754773376
0.020745376330125436803
0.020829491309585664721
0.020871238051660856438
0.020885590788528824585
0.020885719779212302827
0.020880394840801008716
0.02085314357273288649
0.020767187239086448008
0.020685558465181847626
0.020642082037583008719
0.020629918997501699857
0.020632856355100342993
0.020659049988068316911
0.02076728419094408043
0.021027677784981404358
0.021266959400007934972
0.021461453764298935032
0.021625398518488447158
0.021774597090737316668
0.021925044135746220991
0.02209179290506052204
0.022279770665167737687
0.02248879954247417351
0.022707649708879194816
0.022924877694233496833
0.023119672749404046597
0.023283897394318634616
0.035996132532201643994
0.036278256926543711591
0.036517096665078060957
0.036736931090532415345
0.036937303355585905662
0.037103239797864152882
0.037214095637780608694
0.037267782470658261662
0.037275264663026996814
0.037256486087521634154
0.03714007311641362441
0.036672825148358005609
0.03544993955318301998
0.034269891060410076489
0.033389070467761933214
0.032814912626033677923
0.032511785405093827916
0.032401269807801343081
0.03239256500529898164
0.032390062823533384562
0.019758897652161815095
0.020130888641242725146
0.020416152215260521124
0.020635269068704560624
0.020813649921210153337
0.020980791290779645525
0.021154489634232040429
0.021341621325109135648
0.021537698666597222819
0.021729433778743256767
0.021898240948321479743
0.022028457478124388591
0.022115633845613977271
0.02215983444904834343
0.022174522708123256542
0.022174296443655018563
0.022163573394093000202
0.022107725572295261474
0.021980844951067418647
0.021887217936120750839
0.021839267354806627536
0.021825824810274299659
0.021828678642105289742
0.021852291254710928814
0.021946065705179901295
0.022157804777747119873
0.022360634592662013975
0.022548542479131180455
0.022732131879487783854
0.022918278917253908505
0.023115155418593186232
0.023326514787083422325
0.023547285149899486317
0.023773152897775144676
0.023995942562471832271
0.02420287733664370361
0.038105740887054435906
0.038319500531247496777
0.038480778702766622879
0.038633741701498462706
0.038787893805441661654
0.038929338521008098606
0.039032505184639583462
0.039086552888183363763
0.039096266147976677097
0.039081021636793722429
0.038979666065747639592
0.03856375333410134304
0.037386129633963004204
0.036170264436677285191
0.035264771101524455821
0.034676776241928955469
0.034369041984022276337
0.034259982994227958231
0.034252516813154360031
0.034256108705039062245
0.021338288591591099419
0.021691771619659259984
0.021944626197234758103
0.022126572382795580557
0.022269669691819683754
0.022397943058449894249
0.022530050159407715576
0.022672782786652079245
0.022825865812054379339
0.022985537682049337477
0.023144326099056665436
0.023289176784522556268
0.023407114718015320509
0.023490289169683077619
0.023534165367158365462
0.0235485399150295871
0.023548267042999004861
0.023532382349715032233
0.023459045966136911343
0.023359740317599794052
0.023302328462880776
0.023279740225703022399
0.023278838483371019907
0.023289524617411419549
0.023341027605248466231
0.023507326889114277257
0.023730524651724010932
0.023938213686026384858
0.024143855813336324162
0.024351787693361569287
0.024563460041635277326
0.024777638667763824537
0.024986910030961390766
0.025191218188607547579
0.025390898848868210386
0.02558363018332505609
0.040602661195082205559
0.040651249597888572396
0.040731133768009228358
0.040849390696945361845
0.040980717175796252394
0.041087959976723674449
0.041147797151027294682
0.041160356636252559692
0.041145431618146176278
0.041040622051554342953
0.040606212037510983071
0.039374215761542777359
0.038104677322525079552
0.037163357859542937855
0.036555652759645285155
0.036240169202403860194
0.036130862856054858645
0.036123791058317054892
0.036132231812567909557
0.02220316935950450779
0.022472380610819270297
0.022729223615376967921
0.022989152344606147982
0.023257938235335978705
0.023529615871947889144
0.023788182726543139617
0.024017111012312183232
0.024204569909221446827
0.02434341696747879813
0.024435519906290285169
0.024488070712373587873
0.024512078747569877174
0.024518315363139208535
0.024517253520360212521
0.024506975173167733911
0.024458656366863371773
0.024378736837623531108
0.024327862458181290228
0.024305902666955800373
0.024304120659513015618
0.024316524553696965832
0.024381875473716549396
0.024588417119000005595
0.024831078845302417824
0.025038024189422192212
0.025231394002797970927
0.025427938260344683935
0.025637275771681820175
0.025864573814284134989
0.026099907997070109084
0.026335487719959482095
0.026557046784922166277
0.026753870438500894358
0.042318379336903667876
0.042351959399612330859
0.042407136122978715542
0.042542482501121102467
0.04276770406524952467
0.043002736104588844268
0.043195906240028857093
0.043313310417398810659
0.043351610063747075818
0.043346252563012679926
0.043271174571002012088
0.042926436286751211424
0.041799663859495295171
0.040430369002640249854
0.039408373648637369524
0.038742521558080618427
0.038391710373282983415
0.038266819208202657032
0.038255646680220460609
0.038264093621367283038
0.022888587680004790492
0.023176637497338711813
0.023463186038722234211
0.023764462599336212689
0.024088445781005992513
0.024430763697541484081
0.024776048796717034528
0.025104715069701310365
0.025397979678205430398
0.025639487652377074972
0.025820736348491940548
0.025941308514828828602
0.026006226213137258185
0.026032050006390437813
0.026036133317777772345
0.02603027437494166707
0.025993490201277842655
0.02588103521564121684
0.025777925552633331602
0.025716009417646956692
0.025688792271945669332
0.025685029644001777099
0.025692461836571936495
0.025733713023906520934
0.025871210194902086177
0.026075483114367976889
0.026286290570595113175
0.026515957365968397669
0.026771118440585658232
0.027043960750492229694
0.027325077255931022602
0.027599024497016743512
0.027848606335507394144
0.04369722115765100473
0.04391153167102593291
0.044213072723386960539
0.044577398386247350792
0.044946088436357826967
0.045250888516019438512
0.045447775747368211741
0.04552813087143379317
0.045534302165967106835
0.045486006498702970247
0.045225109279747641167
0.044265393305913391941
0.042828068336654541437
0.041729762283900753705
0.041004705656237906697
0.040613875312264929862
0.04046798002589254567
0.040449310240959296392
0.040455384327683432955
0.024720371782963063839
0.024916860495509233347
0.025140268229641622028
0.025396398709925358667
0.025683117975872669231
0.025988926508777435848
0.026296772325430331496
0.026587640288353718565
0.026841665066506755627
0.027041690421789395249
0.027180995467283513428
0.027259570178942833102
0.027293211040662561373
0.027300203941857628664
0.027296244367385574109
0.027267086480724067599
0.027167194991583331481
0.027052989864446961438
0.026974526847322086165
0.026927002819888582602
0.026905733114833629838
0.026902803885788577343
0.026907045612269777507
0.026930051960960713769
0.027012407362646172204
0.027259741596087024018
0.027603713658097026734
0.027944846994928981831
0.028279915287024125908
0.028606497039421908274
0.028918203138138965508
0.029208636796457999873
0.045124977276776431778
0.045404165612513751327
0.045789913403961358951
0.046258778943881730117
0.046742176385512396175
0.047143429235790047793
0.047411825125741276221
0.047544842510955954984
0.047573221056751234526
0.047550604636739726705
0.047388149166055680561
0.046721522138751872544
0.045303861040537581062
0.044144706779543310682
0.04336226685569036926
0.042930526036817955038
0.042763808342199664814
0.042738696458614743034
0.042746193558297146398
0.026373725461173030959
0.026687913312881502564
0.027015005083511730438
0.027342034873573877601
0.027655131093108412804
0.027939084997108620811
0.028181044150022788175
0.028370210655900091057
0.028505608534980676066
0.028590149207391911401
0.028633963040858551041
0.028649779552246960185
0.028651363837267046497
0.028644261780010109308
0.028604500868398330393
0.028494270748443555757
0.028396519110533112451
0.028334718067075208292
0.028305877177747393314
0.028300927486389022836
0.02830718952692708873
0.028345648495682326112
0.028486181997589510306
0.028804454587752739009
0.029131846785459551002
0.029451362889868680506
0.029761713326560662596
0.030063474569728021457
0.030354586910285634438
0.030626775971400330145
0.04709239303397361881
0.04729289293956643464
0.047611707949416895436
0.048036365993169072297
0.048496166928048298206
0.048877564615784442614
0.049090385982472083126
0.049150139184101257483
0.049141850446103016448
0.049035186505484537611
0.048560114007326453389
0.047342655884782453013
0.046272653334908285527
0.045565847953576661677
0.045194443732628764021
0.045067848078595519612
0.045058938549725112421
0.0451039141366945881
0.02798451755545611902
0.028344129736549789067
0.028704207172430037942
0.029060328913626240488
0.029395733390764570286
0.029697623749104687385
0.029949926047887643482
0.030138748517484333089
0.030253165367904479716
0.030304785889725988079
0.030315753852225905268
0.030311732883251018417
0.030286977957163653541
0.030195799275970339193
0.030077774528998617309
0.029997959635231816189
0.029953661341594210732
0.02993928717195159725
0.029939520106025418328
0.029954362739766100809
0.030020685991620651989
0.03024750677348133493
0.030647736916468444612
0.031040025937281588014
0.031413700031676872193
0.031765291334198544893
0.032086821553768782311
0.03237037299049558281
0.048821086320407131032
0.048629743676126060969
0.04858662186548391021
0.048611403611155068472
0.048798471283605461546
0.049432253910572168665
0.050049940257680024247
0.050370909011154228752
0.050456929697410682345
0.050440047563440525147
0.050266175100454495162
0.049549639188987693039
0.048517662223020813217
0.047826668936283171785
0.047466793503962982637
0.047347637624910225707
0.047341404253667729307
0.047427736421748994955
0.02952053245188515293
0.029674388121300725868
0.029834836846680940631
0.030031668868216745971
0.03026887490285527435
0.030536233774811565034
0.03080765978164012181
0.03104882360912279704
0.031232737375507826222
0.031351848887294406221
0.031412786788898354462
0.03143417741494509976
0.031436688340419911836
0.031432560966661075852
0.031430180817256576919
0.031433538382040410175
0.031457366577329226587
0.031556113843898281335
0.031846023423014617471
0.032174657016203270232
0.032458394961575869064
0.032702291674346094241
0.032905723924458667173
0.033074259539548567233
0.033207931028446983912
0.033317065277891355635
0.033416890504571847287
0.048672577327298092997
0.048522018910950009962
0.048513601159665895035
0.048602044669447841407
0.049060915201270031971
0.050053351347276231476
0.050751906158779759581
0.051101826743896475169
0.051194274591299430976
0.051180037505472945891
0.051024712345718134521
0.050470838230096494448
0.049912228425657269304
0.049616533047656140309
0.049521720928007870177
0.049520310004069909016
0.049646350834969370236
0.030451530239784935922
0.030419956418002123966
0.030276194719665912997
0.030019614698937734099
0.029862035037656834563
0.029803193277033398351
0.029801709012005506844
0.029849616345524163791
0.030091805474763380635
0.030718255933608551445
0.03129438351228912979
0.031738516133102516459
0.03207920938228553398
0.032353966110324386407
0.032594883976231316114
0.032826926953033332135
0.033055597592817252683
0.03327871235032873326
0.033482335906036927997
0.033658819034837313133
0.033800705708297823504
0.033905788913598029766
0.033970105816573128998
0.033992350776732419004
0.033991445940383106794
0.033975200073370230569
0.033912789301814634524
0.044232395428102311286
0.044146471794615740891
0.04418779509989980564
0.044494761215381387065
0.045734112337475131549
0.047731520503032927316
0.04920750056473642553
0.050130321474572941964
0.050608043232899385666
0.050798991646817254209
0.050847638957258384229
0.050850393468530964702
0.050852749153064390197
0.050880837963615026254
0.051006560745393614287
0.051341512214143361637
0.025249249432960536865
0.024864783651766624722
0.024548923230713257798
0.02431190588483059592
0.024160500122594970318
0.024090543503395869113
0.024073705102479997509
0.024080362640995070511
0.02413258371192041063
0.024343778619557967374
0.024924705917259135091
0.025580761045612975674
0.026184527644205216057
0.026741819530195998222
0.027243479822854639594
0.027683686099232090311
0.02804948971592942375
0.02833079764696830663
0.028522169408613635977
0.02862853490413247437
0.02866873662879209847
0.028674423255051612741
0.028664066290376499085
0.02860724911465959211
0.028403086181161399382
0.028002537410440449944
0.027632486543661655132
0.027330040017273918296
0.037702565117379106818
0.037713690578155462108
0.037827852108362335082
0.038304793417519363008
0.039691039071630331014
0.041263249570137931765
0.042589102697838464306
0.043663319253340791837
0.044487213075315862332
0.04508261824018591768
0.045486288015327787371
0.045732921603104985386
0.045868309129858488016
0.045901697470934581247
0.045981096041746181979
0.023623210620746893512
0.023601880166367102815
0.023499262097973688118
0.023357250008474862712
0.023278741408551146402
0.023252996474851354153
0.023254228896354492417
0.023280372905595054372
0.023391741830579144273
0.023696071726554013975
0.02402899319287566185
0.024334671131680765677
0.024625008495789722091
0.024908388965157471362
0.025179889319345491461
0.025433775605883279791
0.02565968817550194625
0.02585359704383591653
0.02600543967173680332
0.026112125782622369607
0.026176309507100408575
0.026206193445277550097
0.026214121929885942502
0.026212956165512720647
0.026203506412852187873
0.026168265552574978411
0.026079013747489287328
0.036532325516498070916
0.036696622254996001666
0.037347112331170252697
0.038512072577998740508
0.03948197815376423836
0.040228485245959060002
0.040772693897945903874
0.041153917325091812773
0.041411546288070429089
0.041587069003238968934
0.041704831437408600159
0.041785088793277080921
0.041808558298635500883
0.041871185472075536649
0.022016361228198569333
0.021937816483605796641
0.021899258183965025076
0.021893452910615257556
0.021907242353264907292
0.021991607484799904904
0.022302346325146278627
0.022747716158115511426
0.023103537034697013003
0.023380061336403832467
0.023593576167529418941
0.02376296915494747336
0.023905171945943531203
0.024034982014007021112
0.024163722940946597006
0.024295417687128971485
0.024431557215766033092
0.024564168223064637014
0.024687509349340643061
0.024790046132403643214
0.024865306625639311405
0.024909073072521475262
0.024926445084556565074
0.024926792580269922089
0.024919920978644087561
0.024891143802661934437
0.035011296959186470612
0.035838956189793755303
0.036939279011295851618
0.037775254805942862224
0.038358583332218788853
0.038724044334238767739
0.038926625436272420389
0.039022477230599560138
0.039063895989652007434
0.039084159019550146485
0.039100532139600241432
0.039106233519993482961
0.039141108454140170758
0.021137575802723160973
0.021128536681642044737
0.021131074052444347167
0.021161521638344765045
0.021298284677444684343
0.021640409268801917564
0.021962118203325258631
0.022226367532731487742
0.022448943304309802033
0.022646422874075543968
0.022830912192229400881
0.023012779949788723932
0.023192185305737553908
0.023365671003028054553
0.023525862827891874662
0.023663411756080394988
0.023770493254644399495
0.023843953953040911142
0.023887286594818729624
0.023906588101196120377
0.023911591932698161161
0.023910913248958155092
0.023904229089560826566
0.023880182355857416249
0.023835723861002022783
0.034245247349252896929
0.035306248057129875628
0.036093030860143794636
0.036619076543834477855
0.036923404174616515638
0.03706530672615008376
0.037109376630489895876
0.037112924942183378452
0.037105181013396923428
0.037089954747263662038
0.037079913131219097155
0.037100082944867572576
0.020560463286701302632
0.020555599399142556599
0.020570018444559936416
0.020655014756156248046
0.020942037800765967576
0.021285674986797745167
0.021552554641577671007
0.021763933288647709097
0.021941906556854857968
0.022107210060639623933
0.022269641569857376306
0.022433758944290404375
0.022597564735593496377
0.022754269967165612065
0.022899135311070087373
0.023024535103846124895
0.023127508526906082748
0.023205013850197329234
0.023258238892337624454
0.023287723746218725457
0.023299554928613009502
0.023300152364364126734
0.023295875998982272514
0.023276933681775722335
0.019597579102941208029
0.019634952585844214074
0.019797486139720005954
0.020159649409922160423
0.020475937349363378115
0.020725106626718510505
0.02092304664964718397
0.021087576544179923582
0.021235861687874862946
0.021376704278688925948
0.021519126584636366628
0.02166334822561451906
0.021808406813523043
0.021952381239966463344
0.02208645476462797394
0.0222050726555685779
0.022298430273796670392
0.02236320642309615192
0.022397722689790632716
0.022410006985383295469
0.022410095972636399908
0.022402454150521080439
0.022371832473148521581
0.019146499903930278702
0.019327012614070812613
0.019617946455791058363
0.019868822417201243563
0.020084803070294032779
0.020276996282535098004
0.020451921692692148075
0.020614806212920513961
0.020766606520848579498
0.020905233570915508073
0.021029152674696710568
0.021136278899233015838
0.021223080936422611398
0.021288320061809033051
0.021331223187173169176
0.021356213359803827984
0.021367244069730315786
0.021369843050038493659
0.02136861332300635935
0.021361130684613170716
0.021349603585901631014
0.019290727283574497786
0.01950266868620558966
0.019700188290644179284
0.019889786267533543507
0.020072138119524681604
0.020243517226377273632
0.020392910743492181219
0.020510763575350525467
0.020590002166487694768
0.020635357052524616606
0.02065473692493385513
0.020660062666465750514
0.020660116417093650487
0.020657385675537397185
0.020645952688875937597
0.02061712195002832898
0.020588003342595306844
0.019101814112932134077
0.019271304347071336466
0.019429539290061477452
0.019571359222481904405
0.019694454884432253255
0.019794677974186526692
0.019871189876796892942
0.019922458512605076969
0.019953450687028993771
0.019966763769557211577
0.019969612671057287295
0.019967325470577432234
0.019952900974347567015
0.018609670482979168843
0.01869927099053800279
0.018793493594188831475
0.018893174868151074025
0.018994597595945437313
0.019090293610338513602
0.019170477325687215048
0.019227179539583680312
0.019259105407726146569
0.019270708240917630572
0.019271415354799967257
0.019265981043023017172
0.0090459608074942958467
0.0092684859372423045176
0.010071463515031438621
0.011542249119897748932
0.01276813077524843569
0.013645122006479059457
0.01417766548845665435
0.014432988640193142316
0.014510059062600506874
0.014515527055774286522
0.014483758961648626404
0.014333055815227377719
0.01403953328365931813
0.013761413638047137811
0.0134736269469685737
0.013149472208847689733
0.012785683283885674461
0.01240997295321703657
0.012060544046050695674
0.011778991259339685951
0.022077491425181033913
0.022466075440788699225
0.023805385760198943812
0.026618536222100801225
0.029106686860975044401
0.030932940542682935831
0.032054425835020508573
0.032559877189169299239
0.032693147222848654987
0.03268797962602765228
0.032547305777653967596
0.032009069027260479701
0.031401509858629682304
0.031038615459757081666
0.030808410744205601273
0.030566263934656438817
0.030180551842954324304
0.029612422133782408118
0.028909245366210103989
0.028161050604411253656
0.027515082200110334287
0.027084049173659266452
0.080400473198494193383
0.081835562540619785632
0.085114182337863650285
0.089164266595752661448
0.09338447474315318686
0.097185935206731591252
0.10013156686473854984
0.10207076217208005398
0.10293243821724197551
0.10319815677434554524
0.10321630222049306413
0.10295598747618153745
0.10208803042617163592
0.10147191747537133433
0.10124365393569233207
0.1012321038450139099
0.10130932211937336562
0.10157949199056767742
0.10191630915466118323
0.1021019365653741684
0.10219839458128847365
0.10228844590903669876
0.10245383213713656068
0.10280212061408827706
0.10358600013878745127
0.10557698883943975043
0.4465220062397820544
0.45991122267725220718
0.47464081930714452362
0.48960324239748170827
0.50377280174644389898
0.51576978469826628704
0.52475506633588808736
0.53054375059291758454
0.53315945734061132022
0.53401540132231628544
0.53414106677149231217
0.53384448568242892641
0.53378178663078801325
0.53413245078665183563
0.53549816331629029875
0.53970782798287419979
0.54560048521682968925
0.55064142033291074707
0.55449445297032118329
0.55767941339531235112
0.56055467725182794858
0.56445560953830387074
0.57008086532869339802
0.57836467945340486185
0.58915428529180502437
0.60228602666842767643
0.6164487897381510928
0.63025951498890198099
2.0060860279922234639
2.0252295611844997048
2.0432530384471436768
2.0595521482817562564
2.0735444744019253527
2.0848815969129339543
2.0934062390815442178
2.0992264822247284073
2.1027711344937212168
2.1047594564838143505
2.1061807509758887491
2.1079040901557068999
2.1107733175742282583
2.1151814311295176196
2.1210564757016068249
2.1279009077796238181
2.1350886503467911837
2.1421935363369932759
2.1490449461982441548
2.1559856524380238696
2.1634902797330379798
2.1720663879093820015
2.1819695152538702843
2.1930369785853662812
2.2044208936600560023
2.2154321196147521711
2.2248507530804224608
2.2319233075598088334
2.2363215729118159913
2.2383344587943692083
4.4306772894730119816
4.4230689230788033939
4.4121924030957622165
4.3992627012102225592
4.3845388390535724454
4.3688032303520145661
4.3530050554131323182
4.3379847474000765573
4.3242583103399505617
4.3119408354115673632
4.3009119075805752885
4.2910647066704870056
4.2823666541310840827
4.2747909426100418884
4.2681527087315078717
4.2620382889646499791
4.255888748459632609
4.2492694622086437661
4.2420068069592886673
4.2341780775579520579
4.2259127398251745689
4.2171808110554049875
4.207733324163164923
4.1972296841054506089
4.1854093145276314303
4.1722796766269514279
4.1581786027546394635
4.1436104676283491699
4.1291488267448528404
4.1152009326466423289
4.1021463867855079144
4.0901861054240420401
6.1110848215202624445
6.0819220101996993577
6.0529314298249143889
6.0237901314541195674
5.9943876882530595651
5.9650162356055869139
5.936166392035546302
5.9082584813623331144
5.8813523757287295979
5.8550943313505072751
5.8290628743363974706
5.8031219813743994962
5.7775038692657609829
5.7525291614633280446
5.7283170832861918242
5.704568608312325928
5.6808165186887800147
5.6567426106438425393
5.6324009463491551131
5.6081223004137106258
5.5842382575042721626
5.5608482669298133771
5.5377585723223727854
5.5146808314737763013
5.4914747748205963163
5.4682486815989630458
5.4452530963373222406
5.4227099117149402119
5.4006627215095530659
5.3790051066571438199
5.3576777151663215193
5.3367206780346601036
5.316285766141945146
10.38064541387703521
10.281993614755348787
10.185554338748890046
10.090365564552545408
9.9957686409953065976
9.9024450124353649016
7.0681410923035086213
7.0309882046474569961
6.9940233515852989754
6.9566894357472230936
6.9189471559608088924
6.8812667591183682703
6.8443762725191081842
6.8088073531403514593
6.7745331355395173034
6.7409746011232840601
6.7075292209006942556
6.6740386015290411592
6.6408312495894117333
6.6083692618114149298
6.5768212225847619834
6.5459082142039175523
6.5151432865117904214
6.4842366946560083818
6.4534108363881097503
6.4232004940117386482
6.3940042987723746393
6.3657706204994104482
6.3380684825115141123
6.3103824080090031856
6.2824684704369104793
6.2544254487967343437
6.2265522154363752705
6.1990513472051729238
6.1719394746600757529
6.1451270707156515627
6.1186170673877953163
6.0926337768108007609
6.0674266211976366492
6.0430985635312355342
10.227067859784645165
10.137403415541433205
10.048330379768563247
9.9596070971006582795
9.8707255538965323893
9.7823927189097634738
9.6963632778764736742
7.0970930563300331784
7.0557706248876961297
7.0131234680108907042
6.969891045459869261
6.9277777098959782975
6.8884968009373377384
6.852801285143121035
6.8200567501277475913
6.7887269089426300894
6.7573629935134515989
6.7256194559023345647
6.6942554042013648896
6.66423812665374804
6.6357616983436118474
6.6079774293977324717
6.5796976562148712375
6.5503728004180725719
6.5205066850521404831
6.4910568957721883621
6.4625164338714284895
6.4343969962631559767
6.4055715278462264095
6.3750194411868372768
6.3425083611390711269
6.3086707607391847574
6.2745234821892887922
6.2408850623386324941
6.2080753965792769833
6.1760668302232044624
6.1448530048969578488
6.1145582439547894182
6.0852347243657058939
6.0564579774491633657
6.0273307344569015953
5.9969622128490405188
0.001648162625575642394
0.0016541862570360040072
0.0016510592430427550523
0.0016277822517822568629
0.0015373456136776773254
0.001414396955959960336
0.0013307894584299218184
0.001284387454794232988
0.0012662690958648999909
0.0012638521402761986306
0.001266120155818898068
7.7071807963401920295e-05
7.7033380969932093666e-05
7.6783847918183650654e-05
7.5924428316794968373e-05
7.5035006194443127085e-05
7.4555605205986420683e-05
7.4349940200273608999e-05
7.4283624164091851139e-05
7.4258332344594884557e-05
7.4235199615938331566e-05
7.4218266232420901721e-05
7.4229704531752555485e-05
7.4395040757567170299e-05
7.5298681173848605662e-05
7.8488779478683745367e-05
8.2066032863581955966e-05
8.4107694613916772659e-05
8.4890161988085836354e-05
8.4998515246864192029e-05
8.4960257228560391715e-05
8.4973841377256875414e-05
8.5349352445666210824e-05
8.7159273082758632737e-05
9.0152255508481397546e-05
9.2208041982648039137e-05
9.3373454056561042353e-05
9.3953466326304299248e-05
9.4198497782070129318e-05
9.4270005473486481718e-05
9.4269387236218854433e-05
9.4205231849046970052e-05
9.3935295664313196717e-05
9.3147306688466188925e-05
9.2192039364376071782e-05
9.1339892933948191463e-05
9.0697089151230887998e-05
0.0015239329326106551294
0.0015243866696581468301
0.0015170290591638444302
0.0015004554530671687824
0.0014949625571768494336
0.0014971103767334893037
0.001518492359910876251
0.0016107444465479256977
0.0017474518268962345533
0.0018373269187759114912
0.0018820011289178908021
0.0018941084022761674882
0.0018920734749616643748
0.0018698148277037909479
0.0017736168980406711183
0.0016058761940895675564
0.00148270834677221219
0.001408253167286826037
0.0013732362163641140262
0.0013643270561116513807
0.001362297332115095785
7.6359961772627527456e-05
7.6017881771399306015e-05
7.5890900410486073261e-05
7.5894838086835636937e-05
7.5999274996903614363e-05
7.6392121685283292465e-05
7.6931753389561971079e-05
7.7299865129636474129e-05
7.7444682209009186083e-05
7.7488585742212695616e-05
7.7548871002750715251e-05
7.7732590827810470733e-05
7.8424410220789256189e-05
8.1023324449679606568e-05
8.6302485191052307834e-05
9.0221100628211820275e-05
9.2248567021647071571e-05
9.2815783870188063435e-05
9.2769622436157837754e-05
9.2050359118719206125e-05
9.0304653972717011568e-05
8.9285085299858874637e-05
8.8981879807891017917e-05
8.9001323365783786097e-05
8.937218442002945666e-05
9.0627302648776914646e-05
9.1809716849586744795e-05
9.2526300786736529564e-05
9.2940928555129706328e-05
9.3149177833324751973e-05
9.3223001034959510655e-05
9.321345637702738629e-05
9.3065480563674402741e-05
9.2317856824679190935e-05
9.0951896979105686892e-05
9.0104209938990308354e-05
0.0015627534629477316409
0.0015631772744485040831
0.0015556253930481679475
0.0015407619847005375562
0.0015369153657013125743
0.0015409093717516353633
0.0015714363240844689534
0.0016976262692357608954
0.0018947563872994920009
0.0020307527655164707772
0.0021028365114841144658
0.0021263502974369834046
0.002126386908434559856
0.0021071447363491093221
0.0020148698983203567649
0.0018167591142595348151
0.0016651648699299479665
0.0015723776444971141169
0.0015279515880228502957
0.00151621357571354691
0.0015129157110309976279
0.00010113116545658635691
0.00010775114748699766379
0.00011174284904150310759
0.00011348049943608546958
0.00011383996382551669067
0.00011355856502565541322
0.00011151032026011979638
0.00010443409795171916066
9.6688435283757206084e-05
9.1710317359277300042e-05
8.9204800577201640434e-05
8.8439857021687474708e-05
8.843983916925589198e-05
8.9034487041777420546e-05
9.0506822229778190951e-05
9.1179203480598692362e-05
9.1245858184415632179e-05
9.0923536221570831891e-05
8.9258908183233550597e-05
8.6774680612026230779e-05
8.5307749151649652137e-05
8.4698262667421241718e-05
8.4608738171784684417e-05
8.47179237035250004e-05
8.530921898535088197e-05
8.6102538519794956373e-05
8.6516240702772177046e-05
8.6668692222324292414e-05
8.6703609287428195238e-05
8.6695765407008684288e-05
8.6652560405896394296e-05
8.6471727733800350961e-05
8.6028842846279081433e-05
8.5637384602372919004e-05
0.0016511347647659101699
0.0016432939513202923874
0.0016231957636711918415
0.0016155542043589925672
0.0016171777316927198921
0.0016378878988284901325
0.0017341240669866138206
0.0019578421272149386725
0.0021359121019292564951
0.0022433611299834672718
0.0022896556000249835075
0.0022977495076163824937