/*--------------------------------*- C++ -*----------------------------------*\
  =========                 |
  \\      /  F ield         | OpenFOAM: The Open Source CFD Toolbox
   \\    /   O peration     | Website:  https://openfoam.org
    \\  /    A nd           | Version:  12
     \\/     M anipulation  |
\*---------------------------------------------------------------------------*/
FoamFile
{
    format      ascii;
    class       volScalarField;
    location    "0.014";
    object      p;
}
// * * * * * * * * * * * * * * * * * * * * * * * * * * * * * * * * * * * * * //

dimensions      [1 -1 -2 0 0 0 0];

internalField   nonuniform List<scalar> 
106891
(
99761.993810457672225
99764.141400289940066
99771.384028768035932
99783.757541555038188
99800.535669681150466
99820.244796059836517
99840.903370080122841
99860.308546947169816
99876.348607716980041
99887.344236997116241
99891.913145939048263
99961.146173245870159
99967.189039749573567
99973.979122315882705
99976.968614980185521
99974.650879517910653
99968.452755464721122
99962.196361711365171
99960.484581355965929
99965.454018157674
99975.058631661187974
99982.836337411543354
99981.607523917977232
99968.15295952600718
99945.863838988429052
99923.353903370720218
99909.845444329490419
99910.006616767001105
99921.500751964122173
99937.382003913298831
99951.32948904838122
99961.793571212008828
99971.131894255959196
99982.033559528135811
99994.039270661553019
100002.90185935869522
100003.32835496480402
99993.594473265853594
99976.045858086217777
99955.946309246064629
99938.430145548700239
99926.405754253239138
99920.218966846252442
99919.094005584091065
99921.867439202324022
99926.877086858599796
99932.129910971212666
99935.172601682847016
99934.640654623450246
99805.440742151928134
99806.802850632520858
99807.579169314325554
99806.974944192406838
99804.596982907256461
99800.457012723520165
99795.095069726245129
99789.6102562223532
99785.394046830711886
99783.835222610185156
99786.105022928313701
99792.802009457707754
99803.754900443658698
99818.128990167111624
99834.570006508452934
99851.390188190896879
99866.782694067514967
99879.098881936952239
99887.160497888049576
99890.103579035232542
99981.11557167841238
99979.049032634618925
99974.730612907718751
99968.782579466351308
99963.711153040407225
99962.662014637782704
99968.354776824970031
99980.754078629601281
99996.12577404093463
100007.25380428951757
100006.96068367653061
99992.742770071607083
99969.332866320764879
99946.305719755095197
99933.536478238893324
99935.520974995946744
99949.161660262790974
99966.781594111860613
99981.361250949965324
99991.030342567843036
99998.644289559932076
100007.99172894479125
100019.24798535733134
100029.07013624646061
100031.65238496579695
100024.25840453511046
100007.69701374904253
99986.945546458329773
99966.974559951442643
99951.840455043085967
99942.919991540649789
99940.15395782860287
99942.888339173048735
99949.958967478014529
99958.992352587185451
99966.059631729294779
99818.183795390170417
99821.555411282563
99824.217781061059213
99825.487333886805573
99824.931190679824795
99822.574992201538407
99818.862482979602646
99814.720970471724286
99811.414610930733033
99810.119299853264238
99811.735702447127551
99816.738149361612159
99824.909071333298925
99835.427749672016944
99847.098794351419201
99858.613509176429943
99868.697822281363187
99876.256364624583512
99880.647869333872222
99881.502165471421904
99998.035150535593857
99983.665750605912763
99970.797775457598618
99962.24450655579858
99960.668450992350699
99967.328672874500626
99981.373149381091935
100000.16278035660798
100018.28851247875718
100029.16750114739989
100027.59912452596473
100013.15592116344487
99991.329844904976198
99971.305063620093279
99961.647829691806692
99965.851514199064695
99980.490219554296345
99998.306588505540276
100012.41413839248708
100021.34540040472348
100027.16094587635598
100034.08212519875087
100043.1344700386253
100051.87754107515502
100055.84935775770282
100051.03123105650593
100037.72217432307662
100018.83123304748733
99999.502741321339272
99983.32909604391898
99972.865789971590857
99968.774343857643544
99971.295346250772127
99979.743321036541602
99991.104046755324816
100001.10105253649817
99836.66541780467378
99841.109741267340723
99844.409164118362241
99846.044026712843333
99845.939590651920298
99844.328997499454999
99841.766626997297863
99839.14493822089571
99837.421186427207431
99837.269453165587038
99839.130157294173841
99842.998985059777624
99848.36770219283062
99854.332089805146097
99859.927210391950211
99864.396520418289583
99867.144601865162258
99867.966952417176799
99866.92147487582406
99989.805319810489891
99968.42233166389633
99958.88820673635928
99962.713978355692234
99978.265411888438393
100000.62769306084374
100023.67712054985168
100041.15139217497199
100048.07551140950818
100042.5638153621112
100027.39493238694558
100008.87985495974135
99994.919077524915338
99991.069629119287129
99998.312252573974547
100013.39322669729881
100030.20142632891657
100043.25935669244791
100050.90897195758589
100054.66271765730926
100058.10297655052273
100063.86989603743132
100070.60810716469132
100075.53135632902558
100074.86683795551653
100066.98750548447424
100053.23321689067234
100036.96474575792672
100021.73406612531107
100010.75452389394923
100005.58862450426386
100007.32957870227983
100015.25916830774804
100026.92913788778242
99845.117420411246712
99850.555873930556118
99856.120240066637052
99861.236815765310894
99865.249838832081878
99867.71018901032221
99868.424840491119539
99867.412502332474105
99864.974356917911791
99861.796967555943411
99858.614094252727227
99855.932657857585582
99854.045487090741517
99853.005732454112149
99852.589708336920012
99852.364042653658544
99851.954566488726414
99851.037645346150384
99849.548869518912397
99847.682949704481871
100001.74344967440993
99973.755472094955621
99964.576438529446023
99974.320968832005747
99997.619388490798883
100026.13893272090354
100050.76756665598077
100064.40046380751301
100064.30982594721718
100052.82706314194365
100035.92230529084918
100021.11635117852711
100013.99143535780604
100016.72221955379064
100027.66330321045825
100043.33381028483564
100059.01693349333073
100070.93379339884268
100077.29182188841514
100079.27438891652855
100079.84237919557199
100081.93494751901017
100086.92604997204035
100093.5126086028904
100098.11374974800856
100097.21537215066201
100090.04805989794841
100078.14377580235305
100065.10649174757418
100054.08244830481999
100047.84987708619155
100047.81226324061572
100053.56895782446372
99862.815508979590959
99868.367788916730206
99874.527885406874702
99880.449550613600877
99885.197361536134849
99887.984545705345226
99888.28711194517382
99885.890394314235891
99880.938271000559325
99874.043303481535986
99866.042498446811805
99857.781693596713012
99849.934366163201048
99843.043145814488526
99837.402263679745374
99833.064776314888149
99829.83978554350324
99827.505019994656323
99826.014719183905981
99993.367433511870331
99985.254049787967233
99999.050944062211784
100026.73157976736547
100057.09187012820621
100079.51958353743248
100087.25295342459867
100079.39642435060523
100061.3065993640339
100041.72367268365633
100028.5428162644821
100026.07554513444484
100033.7711073585815
100048.04127161919314
100064.73779031702725
100080.23685191680852
100091.79078297162778
100097.76727109029889
100099.31777991144918
100098.50964873773046
100099.1732297030976
100104.00363897673378
100113.11836145939014
100122.84902652764868
100128.28604605984583
100126.78124918263347
100118.84901226486545
100107.84087461416493
100097.2000027934846
100090.06249773903983
100087.64338178806065
100089.16786594000587
99873.505021094257245
99877.593097059856518
99883.201581299857935
99889.680317445745459
99895.881202805452631
99900.443737726614927
99902.075795006050612
99899.907864073422388
99893.616375139870797
99883.603828393024742
99870.880810133006889
99856.846433362617972
99842.972832370578544
99830.528573499352206
99820.389484664454358
99813.007686290497077
99808.416233936979552
99806.337667336396407
99806.300940426750458
100024.01407860245672
100038.51722397198319
100064.83792880619876
100091.23406101185537
100107.56259059082367
100108.55482758925064
100094.90570564585505
100072.26138794049621
100049.35541590233333
100034.36221746187948
100031.51218465660349
100039.86870374564023
100055.4669549002283
100073.39855678474123
100089.56547633708396
100101.90929767843045
100109.58290261408547
100113.03647923914832
100114.3310373100976
100117.23938533381443
100124.51059839928348
100135.92020688740013
100148.31186502905621
100156.63618373638019
100157.60262715375575
100151.471886868414
100141.27392385645362
100130.90510711597744
100123.00742154668842
100117.70939963268756
99882.518191858864157
99886.498187785284244
99892.49488139571622
99899.259345533107989
99905.145488023670623
99908.360884906243882
99907.329618745046901
99901.263269664210384
99890.195723947719671
99875.038920712191612
99857.337821880762931
99839.105717540340265
99822.284511133751948
99808.411239747438231
99798.485493876389228
99792.789074035317753
99791.116955670862808
99792.778116352768848
100088.40146724521765
100107.13209762437327
100123.96891675727966
100131.98508220915392
100127.64506360473752
100111.57041216653306
100087.83573897655879
100062.87214117273106
100043.838169474795
100035.61840375911561
100039.4108819099929
100052.25740444098483
100069.24537035600224
100086.19275129538437
100100.59471147636941
100111.85255037790921
100120.29522066570644
100127.75860757465125
100136.06008386175381
100147.06064260998392
100159.70631923545443
100170.90466385589389
100177.44355748200906
100176.75648489319428
100169.23968336243706
100158.43517063984473
100147.87972650848678
100138.7266865670972
99883.283588037127629
99884.890418222654262
99889.73168305332365
99896.720043018882279
99903.987574126935215
99909.431777189791319
99911.061540162321762
99907.422262559048249
99897.997297526380862
99883.322779331268976
99864.819385626644362
99844.552473335294053
99824.869690748833818
99807.961276923160767
99795.47782869382354
99788.231051655631745
99786.242767574789468
99788.873272081662435
100142.96889341813221
100150.45949447859311
100152.20010017849563
100146.07232076878427
100131.28310873320152
100109.43593432474881
100084.71572349118651
100062.35722691712726
100047.49671512402711
100042.65796162486367
100047.37580899277236
100058.62758291576756
100073.14479936643329
100088.70426069227688
100104.58097216622264
100120.56750534998719
100136.75597498327261
100152.66686050979479
100167.49863263875886
100179.47887108610303
100186.3489004458097
100186.65330040744448
100180.30885696606128
100169.14707839324547
100156.14694437355502
100143.96631868869008
100133.18735210449086
99880.523018862571917
99885.104163902753498
99892.687297440541442
99901.515237882005749
99909.30763053339615
99913.856214924060623
99913.425449408445274
99907.090212224691641
99894.869108543149196
99877.855119174870197
99857.927925747353584
99837.461578902599285
99818.966990631597582
99804.559485678517376
99795.675193917253637
99792.813071258424316
99795.478524233913049
100156.47609539719997
100160.83369026528089
100165.84944511737558
100168.05877823899209
100164.51152033425751
100153.71454813217861
100136.03014271853317
100114.13902683131164
100092.04225209764263
100073.15028770524077
100059.87256915078615
100053.05754397985584
100053.18849687912734
100060.03961402887944
100073.49358946218854
100091.93978460073413
100113.73728680719796
100136.27227668408887
100157.58898782100005
100174.4877522548195
100184.8662241823331
100187.16070914099691
100181.2757198461768
100169.41320755849301
100154.37308212851349
100138.58273820768227
100123.88719347266306
99884.294430860449211
99893.178552441037027
99903.084160312035237
99911.98684693526593
99917.825762408756418
99918.90184376949037
99914.218046500187484
99903.719320387899643
99888.400852387945633
99870.034945934516145
99850.875320156206726
99833.192343517584959
99819.040357793172006
99809.928212756945868
99806.532069006498205
99808.643581266223919
100146.65026992889761
100155.44173156378383
100166.84725851120311
100175.41458393434004
100176.59809322613
100168.79217710986268
100154.96353004062257
100138.94908127844974
100122.86963815499621
100106.74078303147689
100090.36567746564106
100075.34454877520329
100064.77107220313337
100062.45057580508001
100069.70702736431849
100085.36117761550122
100105.53852033976
100126.86348533831188
100146.37910441710846
100162.04499763454078
100172.10535335013992
100174.85722380381776
100169.4127913149714
100156.77069439424668
100139.59629518653674
100121.11944440042134
100104.11533801148471
100089.74920388891769
99897.978770630070358
99908.115574982744874
99916.108292225908372
99920.343513505606097
99919.750255484163063
99913.921026582713239
99903.279451055670506
99888.960508773525362
99872.540098678116919
99855.928797657354153
99840.854418562506908
99828.936105994551326
99821.268446122805472
99818.245183089064085
99819.659915135547635
100141.51844107762736
100159.8816059652454
100174.13226025243057
100178.83304555769428
100173.81549592431111
100163.97497720980027
100154.16981290708645
100145.55042946318281
100135.59502507609432
100121.45587962337595
100103.72620712054777
100087.20386119402247
100077.63984443229856
100078.0487903188332
100086.89792467959342
100100.16887048946228
100114.52694272941153
100128.37335795695253
100141.3817081181478
100151.69976788884378
100157.05460027330264
100155.18299187031516
100145.38821539326455
100129.32728872193547
100110.38012113643344
100091.65475821348082
100075.90356305922614
99911.456271841336275
99917.805304411012912
99919.612984311723267
99916.492828315182123
99908.78003098636691
99897.439117891408387
99883.794590465840884
99869.346018945216201
99855.448393382859649
99843.394102789796307
99834.088193153918837
99828.057846302792314
99825.400240932169254
99825.803117483665119
100148.33536391424423
100165.74674745796074
100172.22283471601258
100169.86473877256503
100164.64721244781686
100161.62287315131107
100161.14544535620371
100158.87997980960063
100150.20540669685579
100134.72035575662449
100116.97846435182146
100103.12938359568943
100096.45768386176496
100095.84075332588691
100098.24717297438474
100102.10417079630133
100107.75147579720942
100116.10172441127361
100126.12947929266375
100134.7073641467432
100137.5897434502549
100132.55344037264877
100120.11366127041401
100102.86485392607574
100084.122239876393
100068.23194189563219
99915.465831657420495
99914.933722280853544
99909.504533503510174
99900.143167017580708
99888.297488060954493
99875.493172288115602
99863.038051517782151
99851.932271493322332
99842.885725736035965
99836.118976863624994
99831.563410251023015
99828.981493594357744
99828.210323598963441
100152.40596575391828
100158.96831122334697
100158.66527902566304
100158.22775227425154
100161.97461558872601
100168.83597378587001
100173.75786461314419
100171.78976351160964
100161.86882493196754
100147.2421511822904
100132.58524437699816
100120.29870270239189
100110.06201397710538
100100.79615628311876
100093.20950956684828
100089.66901570973278
100092.32099546366953
100100.53335939547105
100110.81498306310095
100118.0160126213741
100118.1615478337917
100110.30558258866949
100096.29983101360267
100079.79898730837158
100065.69344012596412
99907.010186230399995
99900.233614735407173
99890.179580295283813
99878.458563013569801
99866.704506970520015
99856.170128415760701
99847.581609382439638
99841.021488577389391
99836.214198585774284
99832.664952098726644
99829.918127014563652
99827.743330548488302
100142.5527461663296
100144.18775533117878
100147.79517504530668
100156.72040638604085
100169.19430807392928
100179.83681884598627
100183.93925907732046
100180.13695523308706
100170.4247064529045
100157.62217422950198
100143.13444688403979
100126.68401390755025
100108.74222749250475
100091.66696891128959
100079.28186442730657
100074.84767443744931
100078.94796015361499
100088.32248631841503
100097.71168826290523
100101.90262886366691
100098.68599974698736
100088.85719365513069
100076.24714566196781
100065.53029973828234
100129.08394248638069
100135.29520231416973
100147.17858069995418
100162.90255337729468
100177.58136498529348
100186.48468196390604
100187.84567961319408
100182.76114560235874
100172.98582095158054
100159.31940143353131
100141.41267252463149
100119.86059055883379
100097.06160989425553
100077.68752127877087
100066.27509178206674
100064.36873702109733
100070.09235303664173
100078.63610429645632
100084.47796070286131
100084.56412514719705
100079.0898657587677
100071.12074236346234
100064.92267807151075
100134.34048300160794
100151.19761049587396
100168.31717166553426
100180.66691244141839
100185.76101776109135
100183.97697210530168
100177.20407424424775
100166.30316944442166
100150.86397713691986
100130.49232271431538
100106.51582884335949
100083.20779593432962
100065.78388121556782
100057.47225132344465
100057.89151313413458
100062.87805705437495
100067.65965025736659
100068.99716911955329
100066.70560119835136
100063.19893848574429
100061.90532079909462
100175.72342190142081
100175.98780136869755
100171.49567350087455
100164.10802614192653
100153.4579518425453
100137.63649642202654
100116.30744204489747
100092.48553816504136
100071.36576089872688
100057.63681694291881
100052.09739156035357
100052.06826674565673
100053.58632243740431
100053.93564217425592
100052.86854154606408
100052.41287928629026
100055.02414917130955
100148.61289170342206
100138.82898501073942
100122.6639049667283
100101.35154441556369
100079.51797729250393
100062.29229402163764
100051.58276426384691
100046.33074635236699
100043.45236086509249
100040.87696427537594
100038.95248557720333
100039.40708930382971
100043.95088522150763
100133.06454669407685
100123.12474427931011
100106.52703440518235
100086.66955082822824
100068.32536739001807
100054.31253819540143
100044.50544203778554
100036.95489075887599
100030.41573251769296
100025.78199543290248
100025.11560806621856
100029.35322593250021
100260.31731718950323
100259.62121747192577
100270.1717064534605
100281.59567257773597
100285.4815583214513
100281.81355784340121
100277.67956337486976
100280.78930048682378
100292.79067437033518
100309.11352254443045
100323.2387549286359
100331.47871412998938
100335.50040961422201
100339.73272586664825
100348.78587549427175
100365.76117621723097
100389.96648993890267
100416.1942048787314
100437.07047967842664
100446.1257282520528
100292.51266910407867
100270.98442156561941
100267.0170579450787
100276.30511344032129
100286.78554169792915
100289.23029911954654
100282.93888068075466
100275.81922270047653
100277.07063111639582
100288.82036481321848
100305.66181222708838
100319.46376206621062
100326.40861197613413
100329.26781617487723
100334.40224057291925
100347.19387660565553
100369.50607595354086
100398.14172394946218
100426.00511637461022
100445.83225917996606
100453.21339732187334
100448.34271153539885
100368.03488374382141
100340.40366363534122
100305.68687190661149
100280.23552184633445
100273.23730040661758
100281.35725625317718
100291.43929439820931
100292.45713224714564
100283.4058548205212
100273.64217377085879
100273.12775428748864
100284.8345976233395
100302.25395420573477
100315.96856287337141
100321.80826553632505
100323.57164284279861
100329.45213634168613
100345.69465457911429
100372.93610205109871
100405.45121297289734
100434.54646513867192
100453.19682917150203
100458.87896492893924
100453.4374200222519
100441.65952708227269
100429.14239707580418
100391.25866014009807
100383.41315514141752
100354.50048703051289
100316.83710640839126
100287.80213651389931
100278.31653565682063
100285.56741289701313
100295.55058958212612
100295.33137139645987
100283.86232228114386
100271.49641177452577
100269.31104337747092
100281.01492424627941
100299.18522986298194
100312.95708886242937
100317.82801228655444
100318.52728113046032
100324.91982025041943
100344.21412683813833
100375.82913351219031
100411.76746440588613
100441.90213358834444
100459.32981356860546
100463.32035751765943
100457.39552912901854
100446.63392341084545
100434.69634574309748
100424.71584654842445
100386.62347873079125
100402.97374349324673
100396.73177959433815
100366.49570418483927
100325.94603501661913
100293.65184266296274
100282.09909007018723
100288.84100407095684
100298.98005644390651
100297.74961727694608
100284.11839383671759
100269.02767528733239
100265.55057835925254
100277.36848054266011
100296.53199938019679
100310.5139942344249
100314.51566833740799
100314.09916854451876
100320.79581171230529
100342.74009801189823
100378.29569758052821
100417.26575734070502
100448.26122910964477
100464.44653013189964
100466.83861691203492
100460.60707080891007
100450.7625326301204
100439.4885050644225
100428.52589545960655
100420.87786510454316
100363.99171018332709
100394.14418598149496
100413.0569072990038
100407.32121259155974
100375.89583798070089
100332.82231780819711
100297.82348264548637
100284.74782998979208
100291.3516242543119
100301.77671617294254
100299.92783728217182
100284.26306827069493
100266.76888513052836
100262.16503394817119
100274.18131676626217
100294.35276280065591
100308.75018082869065
100311.84529476150055
100310.28802904406621
100317.11697026474576
100341.31459055127925
100380.31254077062476
100421.95647932629799
100453.55981476868328
100468.57769953926618
100469.55687807308277
100463.04213819788129
100454.00617693887034
100443.45243377149745
100431.62112329465162
100421.77366427771631
100420.29653596572462
100367.31030683436256
100399.8213678108732
100420.9374073768704
100415.95700163548463
100383.20058141311165
100337.76533888085396
100300.59845992313058
100286.28855989100703
100293.15368293870415
100303.88698583656515
100301.58768641525239
100284.164959919799
100264.92284735126304
100258.96120000784867
100271.49624913159641
100292.66679027561622
100307.58213467603491
100309.85836802382255
100307.16920043028949
100314.04243609093828
100340.01667454044218
100381.82432142371545
100425.75280556251528
100457.79817134789482
100471.87439184929826
100471.61038850019395
100464.80544591107173
100456.43149869747867
100446.53828361163323
100433.94194502508617
100422.0453644382651
100418.67758210576721
100431.86792581382906
99872.294404221654986
99889.910105556089547
99902.861740665030084
99901.954045215403312
99883.075110542908078
99860.689052632049425
100369.29059314003098
100403.90633346873801
100426.33667460328434
100421.48501959819987
100388.06411840317014
100340.75555359892314
100302.03578127322544
100287.15721081323863
100294.3113342300494
100305.30595636210637
100302.68725652727881
100284.16306282248115
100263.3727655295952
100256.73232071826351
100269.62471259487211
100291.61023528200167
100306.95687940744392
100308.58048976831196
100304.92030046071159
100311.76068760282942
100338.9916441119567
100382.8097481741861
100428.40766885575431
100460.73558493432938
100474.18940152406867
100472.92752011719858
100465.87685335645801
100458.01690913840139
100448.56326202323544
100435.53743364755064
100422.08841299159394
100417.44086934346706
100430.45740955031943
100460.94842540867103
99847.823370989601244
99874.393922879375168
99892.259612588051823
99905.114601968001807
99903.03128314235073
99882.500437535956735
99859.304376988002332
100370.06138488519355
100406.3492976353009
100429.42677455754892
100424.35444987630763
100390.39191077761643
100342.03703347762348
100302.58969893561152
100287.57154929358512
100294.86141683219466
100305.99397008340748
100303.23896682415216
100284.08147385477787
100262.39070638250269
100255.46559177988092
100268.66758680217026
100291.14407220197609
100306.69643520050158
100307.9192996230995
100303.67344420778682
100310.48163415510498
100338.44061115055229
100383.34649881928635
100429.88765088251967
100462.35771777851915
100475.41614582277543
100473.60517935288954
100466.37113360282092
100458.77642253374506
100449.58597370536881
100436.37165253810235
100421.84856946098444
100416.70615462477144
100429.67923956063169
100460.84174462764349
100497.43598942006065
99750.953915470658103
99730.411362273283885
99710.105469936082955
99692.345340668063727
99679.19374406208226
99672.234218867059099
99672.332299339861493
99679.426339539873879
99692.514957173771109
99709.991080644438625
99729.582458058051998
99806.916170375523507
99801.877482800235157
99796.437467232230119
99795.592655896427459
99799.9931000428478
99808.165055750767351
99817.348738816537661
99825.638015244388953
99833.81661485346558
99842.301943756334367
99850.163037694102968
99855.836553172804997
99857.253424185037147
99855.726206322797225
99854.401812209369382
99855.956416831875686
99859.708838296603062
99862.013563288521254
99857.293652879452566
99843.339492296028766
99824.017506485484773
99808.079716750638909
99803.943418830021983
99815.424456486944109
99840.393365227413597
99870.881783318647649
99896.885301767440978
99910.625154139677761
99909.195535474718781
99894.850575781601947
99872.972727452157415
99850.895746550580952
99834.994462613176438
99828.956581043996266
99833.503564788145013
99845.288753144821385
99754.240586886415258
99761.696943277944229
99770.298140340280952
99779.09635460539721
99786.868863750729361
99792.204514554730849
99793.765545820526313
99790.466085783118615
99781.725210654185503
99767.81929009972373
99749.872732132556848
99729.727571755458484
99709.75706523838744
99692.566866157474578
99680.512187720189104
99675.319674989586929
99677.828922674525529
99687.827320893004071
99704.043850244706846
99724.462534647085704
99746.388690524821868
99799.846093240776099
99802.545473785154172
99811.750162509983056
99827.683490058814641
99846.613058337781695
99863.225197990774177
99872.785872416076018
99875.527493134577526
99874.759265102838981
99873.565329454504536
99873.771089612942887
99873.882786031317664
99871.231899452701327
99866.242621967350715
99861.072131512875785
99859.291728202180821
99862.258863244467648
99867.514108511226368
99869.952958178429981
99866.056155903628678
99856.871692285334575
99846.767633906711126
99842.826805246717413
99849.330287301752833
99865.61499851771805
99887.24131055160251
99906.675636110361665
99916.994750509547885
99914.896295982718584
99901.134172677819151
99880.612656893892563
99860.131505208555609
99846.110059155558702
99842.680633708936512
99849.850068931104033
99863.874764559383038
99749.528687619065749
99754.550144250111771
99761.316063212769222
99769.066183826085762
99776.717495358316228
99782.852673149376642
99785.942977495957166
99784.6922257963015
99778.307708129577804
99766.792194094290608
99751.080999983445508
99732.937465176466503
99714.757819586273399
99699.227646561412257
99688.868307656171964
99685.496123248303775
99689.927671232348075
99701.880962871728116
99719.899993983301101
99741.727164547352004
99764.460597567303921
99815.920587098327815
99840.133394689648412
99871.358289094190695
99901.909667214276851
99922.726937206069124
99929.709043109367485
99924.598939612929826
99912.97329635755159
99901.39801464570337
99893.541494447432342
99888.351990442723036
99882.975464674265822
99875.906490006367676
99868.46183325216407
99864.751839251650381
99867.487685207233881
99875.775131128757494
99885.636303255392704
99892.577551088019391
99893.943294555647299
99890.235118959564716
99884.800248311177711
99882.702394007195835
99886.463264475518372
99895.698363270887057
99906.636115972374682
99913.519987975741969
99911.814943654011586
99900.907041638565715
99884.044591694299015
99867.353245301186689
99856.96415002377762
99856.649500004787114
99866.339081230180454
99747.280112584674498
99751.65854576867423
99757.789158724655863
99764.692031705926638
99771.079995206877356
99775.438438597804634
99776.441619832869037
99773.158980590975261
99765.312168627540814
99753.466541931004031
99739.15122702732333
99724.50810028934211
99712.011945361882681
99704.051048218796495
99702.432633278076537
99708.014517653849907
99720.496393281966448
99738.50761464885727
99759.798759409211925
99781.601795232971199
99846.289551820358611
99881.348440021116403
99921.727450569538632
99956.218991502202698
99975.7233984372142
99977.075785221721162
99963.200861025339691
99942.130921491465415
99922.393703285270021
99908.573520903140889
99900.426426724705379
99894.547124641889241
99887.972048529540189
99881.086690749623813
99877.098074976573116
99879.371158731359174
99888.821294697234407
99903.42374491278315
99917.891816820265376
99927.37463500033482
99928.733667868989869
99922.331272223615088
99912.160359673798666
99904.270415390317794
99901.395053427419043
99903.924587968751439
99907.244150173151866
99906.537552925467025
99899.115165742943645
99887.121787469863193
99875.252514308987884
99868.971648802937125
99871.584438952922937
99882.503520368933096
99742.385361675085733
99743.136089834602899
99746.304716463331715
99751.267567275644979
99756.949384970750543
99762.057792127263383
99765.269464061682811
99765.514805753336987
99762.216126111321501
99755.575528902598307
99746.543541395847569
99736.789811822367483
99728.308556358679198
99723.159737871057587
99723.017911049406393
99728.793324773549102
99740.38225988704653
99756.638412362139206
99775.691698902664939
99795.114517511858139
99929.901312631074688
99968.89253412540711
99998.261518653976964
100010.62887986795977
100004.97632372482622
99985.648998847187613
99960.598734158425941
99937.517627354216529
99921.323403075846727
99912.561406403823639
99908.217165209251107
99904.621613398223417
99900.886789884534664
99898.320961775520118
99900.043923704171903
99908.004821033129701
99921.86729140765965
99938.351204107224476
99951.384311604328104
99956.33314142805466
99950.859968025673879
99937.815431956274551
99922.989191413143999
99912.325221189021249
99907.630656262190314
99907.367221891719964
99906.603547462887946
99902.341769125006977
99894.719308252082556
99887.488548692810582
99884.632560628815554
99888.396359756661695
99740.607011000451166
99739.309480920666829
99740.451494085078593
99743.551212698948802
99747.725005620770389
99751.903368679559208
99754.969793043928803
99756.031322251612437
99754.773836828375352
99751.533322156843496
99747.240505641835625
99743.289514094649348