/*--------------------------------*- C++ -*----------------------------------*\
  =========                 |
  \\      /  F ield         | OpenFOAM: The Open Source CFD Toolbox
   \\    /   O peration     | Website:  https://openfoam.org
    \\  /    A nd           | Version:  12
     \\/     M anipulation  |
\*---------------------------------------------------------------------------*/
FoamFile
{
    format      ascii;
    class       volScalarField;
    location    "0.014";
    object      p_0;
}
// * * * * * * * * * * * * * * * * * * * * * * * * * * * * * * * * * * * * * //

dimensions      [1 -1 -2 0 0 0 0];

internalField   nonuniform List<scalar> 
106891
(
99761.943044283325435
99764.353921168192755
99771.896779268441605
99784.564771860052133
99801.580073246368556
99821.422537451027893
99842.082101461055572
99861.349110757655581
99877.126779532045475
99887.764299941452919
99891.915013263642322
99960.927854477558867
99967.134590265457518
99973.903327330641332
99976.733085783984279
99974.259324590035249
99968.013529118179576
99961.875978126990958
99960.42974436043005
99965.674940587414312
99975.38256907997129
99982.985028408293147
99981.361711962133995
99967.516008814738598
99945.074539363195072
99922.76113504312525
99909.723662965800031
99910.377247257565614
99922.163354766977136
99938.045112124847947
99951.844475571881048
99962.198768871181528
99971.559182963639614
99982.544355463411193
99994.520860942502622
100003.14193044030981
100003.1623703406367
99993.011624746097368
99975.194931355988956
99955.037304723766283
99937.634360242416733
99925.808945583863533
99919.825859292061068
99918.896748843675596
99921.81683977645298
99926.906278083581128
99932.15619729887112
99935.102709907951066
99934.463393799713231
99805.564227839466184
99806.939676035253797
99807.668917506875005
99806.972838300745934
99804.485644488799153
99800.244448785146233
99794.824028619041201
99789.350090338703012
99785.224137364246417
99783.833076412891387
99786.330956473684637
99793.277304202507366
99804.458727095785434
99819.002989448359585
99835.5246927459375
99852.316792853685911
99867.572102320700651
99879.660357082320843
99887.430114522110671
99890.04527891316684
99980.72434555288055
99978.628609545703512
99974.265926594656776
99968.333730934449704
99963.389348218814121
99962.593971198031795
99968.600928997329902
99981.243644423419028
99996.63537048753642
100007.49044334703649
100006.71758388886519
99992.059738040028606
99968.492045821854845
99945.703656087454874
99933.444571324245771
99935.958525086098234
99949.884334530448541
99967.474287434437429
99981.860704713923042
99991.370724653883372
99998.991990057809744
100008.44891339214519
100019.72315906618314
100029.35251068268553
100031.54538554344617
100023.70348670473322
100006.81587397049589
99985.944352045771666
99966.055022971864673
99951.135036283580121
99942.466998062373023
99939.956685730503523
99942.914072299332474
99950.147353338164976
99959.2149662872107
99966.161895368888509
99818.335815945305512
99821.710128558319411
99824.327894888512674
99825.50907540776825
99824.846429979093955
99822.390894668234978
99818.61467096983688
99814.472679502199753
99811.23776836336765
99810.074975646086386
99811.868817728623981
99817.060804087319411
99825.395189665898215
99836.02029538822535
99847.723531682539033
99859.190819078372442
99869.152324065871653
99876.532162047704333
99880.712735455948859
99881.344852863388951
99997.152166661573574
99982.820448438447784
99970.110921795057948
99961.816861122249975
99960.57769703050144
99967.590323496871861
99981.920292700859136
100000.84006858229986
100018.85034477314912
100029.37371101947792
100027.3310003423976
100012.5051710478001
99990.586956607716274
99970.82436282679555
99961.655155519169057
99966.338926854718011
99981.212798829612439
99998.978206126979785
100012.87099434196716
100021.61736099037807
100027.40925801129197
100034.41687790541619
100043.52964702744794
100052.14541031009867
100055.80835020673112
100050.58547613494738
100036.93958245379326
100017.89055198797723
99998.600541667488869
99982.601962368498789
99972.394610348041169
99968.583295917720534
99971.385988657100825
99980.04039291087247
99991.459124364351737
100001.32889200071804
99836.815192187656066
99841.220385821405216
99844.435869478547829
99845.964704383397475
99845.757306863190024
99844.068100311138551
99841.471831354967435
99838.873822218971327
99837.221210037751007
99837.171767830703175
99839.149293628914165
99843.121702490418102
99848.555014343422954
99854.531078917832929
99860.088142764521763
99864.476737178454641
99867.115178055071738
99867.819679915788583
99866.66113896277966
99988.518777156044962
99967.55084746927605
99958.560450639357441
99962.929118994812598
99978.891008517792216
100001.43649507215014
100024.42171998275444
100041.6076273440849
100048.11450410852558
100042.20617117574147
100026.81372867587197
100008.35326144837018
99994.685993576858891
99991.25905030775175
99998.860357308018138
100014.08866812074848
100030.81268657096371
100043.64360172874876
100051.11016097861284
100054.78281508928922
100058.29215190699324
100064.1396439071832
100070.85947668366134
100075.6024914598238
100074.65100543109293
100066.45689669874264
100052.51046249324281
100036.19441621277656
100021.07009524316527
100010.29837386468716
100005.40585900004953
100007.42641060402093
100015.57106411400309
100027.31376333102526
99845.24081934033893
99850.69768771265808
99856.243838079404668
99861.301935686293291
99865.220475151232677
99867.569632552505936
99868.173775627365103
99867.065350666263839
99864.565484048333019
99861.372387807670748
99858.207555240631336
99855.565140756662004
99853.726023154813447
99852.732088850912987
99852.345027687304537
99852.125015285302652
99851.700238632867695
99850.752900563180447
99849.233760899442132
99847.346074229993974
100000.10104763392883
99972.773154142283602
99964.397039283896447
99974.832003249539412
99998.535186931243516
100027.10493022826267
100051.44907899168902
100064.61560624731646
100064.06449177328614
100052.30323027876148
100035.39070614163938
100020.82416476258368
100014.0685095548979
100017.14310717023909
100028.29304652608698
100044.00868450048438
100059.56783791750786
100071.26431901448814
100077.41955262738338
100079.29260851530125
100079.8919410079252
100082.09891432634322
100087.20243501919322
100093.78290227099205
100098.21174528174743
100097.04718447217601
100089.62968765071128
100077.58718886111456
100064.55875231162645
100053.66838602814823
100047.65774377975322
100047.8564929303684
100053.79496446397388
99862.962050097296014
99868.539381819748087
99874.684976824995829
99880.537462033433258
99885.169001063375617
99887.806177528691478
99887.944856470770901
99885.390372849564301
99880.311189645566628
99873.336601022412651
99865.306678904642467
99857.058577047617291
99849.257448984804796
99842.436774281974067
99836.875283324989141
99832.613264838626492
99829.448860896736733
99827.161809964978602
99825.711642698588548
99992.371103653480532
99985.193620103993453
99999.735106144406018
100027.77096213719051
100058.0375849113334
100080.0226831324544
100087.15878000514931
100078.82054555372451
100060.55869145652105
100041.14567383220128
100028.37396926962538
100026.35252573032631
100034.37108663536492
100048.77048166157329
100065.43005257094046
100080.77319912365056
100092.12010807117622
100097.88365192632773
100099.30431557478732
100098.51605627354002
100099.33613107750716
100104.3751861674973
100113.61239575753279
100123.2690016804554
100128.46138967339357
100126.65776807763905
100118.51297421685013
100107.42778819006344
100096.84901568999339
100089.85656895297871
100087.59199884296686
100089.19541659526294
99873.647500725579448
99877.803586429145071
99883.45371521137713
99889.92374354696949
99896.043128872013767
99900.44614313589409
99901.859558114112588
99899.445623802792397
99892.918465430426295
99882.721657745729317
99869.89034589084622
99855.835526503928122
99842.019232905338868
99829.692812499139109
99819.708585058659082
99812.495368153700838
99808.066302480554441
99806.122497110729455
99806.183934775763191
100024.02173362024769
100039.18902167964552
100065.75560498844425
100091.9441100621334
100107.75431812314491
100108.16055917138874
100094.07525856235588
100071.29545449497527
100048.61514833137335
100034.09315808633983
100031.75615580196609
100040.49589190668485
100056.25241383678804
100074.14646739356976
100090.16377149960317
100102.31299368130567
100109.7874621397641
100113.13027139889891
100114.43814231512079
100117.51848758378765
100125.02920844146865
100136.57483013423916
100148.92156775355397
100157.00633207101782
100157.66620502131991
100151.28896736532624
100140.9779358177766
100130.63450360902061
100122.80823900856194
100117.55366117694939
99882.745013949126587
99886.841694366084994
99892.902392261021305
99899.646058555925265
99905.413805965188658
99908.412790083835716
99907.097861062313314
99900.730940911802463
99889.395451387361391
99874.046680132203619
99856.260452365109813
99838.05951296321291
99821.371656751565752
99807.705465376697248
99798.023350488714641
99792.572988566054846
99791.11938107154856
99792.944138576756814
100088.83761663001496
100107.65854430740001
100124.27168759904453
100131.8561358890729
100127.05063739333127
100110.61416083775111
100086.74833207612392
100061.93471083938493
100043.29440314577369
100035.58207826664147
100039.82121070488938
100052.94043338987103
100070.00493135405122
100086.88144357976853
100101.14915411731636
100112.27666959881026
100120.66972925896698
100128.15012954581471
100136.57417757670919
100147.70319918864698
100160.38417659205152
100171.48569739736558
100177.79433268609864
100176.81875868752832
100169.08687444130192
100158.22054098064837
100147.68417148417211
100138.54888826822571
99883.484893686618307
99885.277669748611515
99890.274888849060517
99897.33702975914639
99904.563864074516459
99909.847767223589472
99911.212862348998897
99907.247533265210222
99897.493332201163867
99882.546610577963293
99863.87200412688253
99843.567621106034494
99823.982827115629334
99807.284834706471884
99795.085028594068717
99788.148141440440668
99786.449945406333427
99789.311274119376321
100143.09034562695888
100150.42144777531212
100151.89643972083286
100145.45583106928098
100130.38027401601721
100108.36186908640957
100083.66516665264498
100061.542590259196
100047.07394513515464
100042.66611069471401
100047.73375208863581
100059.1950545751024
100073.80068616000062
100089.39296341100999
100105.29418251078459
100121.30718631568016
100137.52646997923148
100153.43526207377727
100168.21201074249984
100180.04687581524195
100186.69418170269637
100186.7442849570507
100180.18524304653693
100168.91078697236662
100155.91273379213817
100143.79219219184597
100133.03843915228208
99880.95723109546816
99885.766256172777503
99893.500765794160543
99902.361844387865858
99910.051036796969129
99914.371963536643307
99913.622084415663267
99906.931611215739395
99894.380504934801138
99877.125120696146041
99857.084669238014612
99836.651359524141299
99818.328115391923347
99804.199798411500524
99795.655044889645069
99793.131957567078643
99796.084928818920162
100156.47028039752331
100160.85744123047334
100165.82413512756466
100167.87600239511812
100164.08303123894439
100153.01073939251364
100135.1203091233765
100113.15481548207754
100091.14083324548847
100072.45196710256278
100059.44258796414942
100052.92492270134971
100053.34828490084328
100060.49398713231494
100074.19869634548377
100092.85471626473009
100114.75896451507288
100137.30601234323694
100158.51772958258516
100175.18764850197476
100185.27235546871088
100187.23836510011461
100181.08764930054895
100169.07893972373859
100154.00847797376628
100138.27203209155414
100123.677703609952
99885.057183482451364
99894.092601671305601
99904.040084458974889
99912.860334160504863
99918.495007684192387
99919.273300675471546
99914.24505160409899
99903.416132698272122
99887.839038494057604
99869.330851216625888
99850.166829711131868
99832.615519612911157
99818.708847356887418
99809.911711179331178
99806.847912090393947
99809.254374158321298
100146.84698339113675
100155.78177965682698
100167.18273700251302
100175.55424206639873
100176.40851702333021
100168.30052464942855
100154.31657282347442
100138.2738474632788
100122.1982885797479
100106.06891121514491
100089.72017442260403
100074.82840903644683
100064.53600492575788
100062.60623529854638
100070.26890761409595
100086.21689652740315
100106.52657348537468
100127.84352184257295
100147.22927364415955
100162.70147644760436
100172.48619393832632
100174.9246858079423
100169.1896847338503
100156.35435252971365
100139.12194218605873
100120.71731906115019
100103.85735820916307
100089.65174412816123
99898.893956010375405
99909.002821827059961
99916.856679711709148
99920.862804451680859
99919.98644986889849
99913.858369513880461
99902.946450504925451
99888.433553939888952
99871.914585401143995
99855.311640169820748
99840.356956570743932
99828.646689582557883
99821.240527181988
99818.48681715677958
99820.145439212108613
100142.21624100868939
100160.56211321828596
100174.54165985931468
100178.85096793000412
100173.54293449640682
100163.61613676705747
100153.85223707127443
100145.24270129846991
100135.16619194763189
100120.86050048099423
100103.07556028793624
100086.73423908249242
100077.54156040774251
100078.36528247447859
100087.49947904437431
100100.88596522103762
100115.25267068562971
100129.05982884416881
100141.97251894598594
100152.1302719747182
100157.24678303656401
100155.09373701264849
100145.05040369179915
100128.86140724924917
100109.9269805084914
100091.32180638772843
100075.79325324026286
99912.214064827159746
99918.36325532651972
99919.911901664003381
99916.516600075890892
99908.553582182954415
99897.021675497031538
99883.260396363402833
99868.775413526687771
99854.925760145881213
99842.98953542727395
99833.852672598441131
99828.009005330168293
99825.550589282036526
99826.127991939967615
100149.25904803875892
100166.31597827351652
100172.39769861083187
100169.81606361307786
100164.6044567496283
100161.70080422713363
100161.25151783024194
100158.81420519702078
100149.84873872049502
100134.16571821719117
100116.45739162234531
100102.84998030702991
100096.46438898259657
100096.04031866596779
100098.53082629664277
100102.43991600112349
100108.17322734724439
100116.60992316323973
100126.63965989783173
100135.08323496104276
100137.71454857400386
100132.40191298081481
100119.76033577269118
100102.43326957945828
100083.76190883411618
100068.1108564222377
99915.826460595635581
99915.017710345520754
99909.329388980637304
99899.768939189554658
99887.804255297596683
99874.958751285943436
99862.535826681050821
99851.511520951316925
99842.577254236559384
99835.929017098955228
99831.498133378379862
99829.026733216407592
99828.366368333532591
100153.02053535020968
100159.23715335168527
100158.82488460720924
100158.50459125371708
100162.43120097773499
100169.32943836724735
100174.06884504150366
100171.77812625207298
100161.57923078199383
100146.84430783850257
100132.22843364351138
100120.02346070688509
100109.8361033671099
100100.61334335229185
100093.130552185743
100089.79892186060897
100092.69459431896394
100101.07648117755889
100111.35152137614205
100118.37286015274003
100118.24241569767764
100110.12998056334618
100095.97417666739784
100079.50102571363095
100065.60649027624459
99906.946205982239917
99899.934443572739838
99889.723883613551152
99877.939638180178008
99866.203877969950554
99855.746252158016432
99847.264056234853342
99840.801389205313171
99836.070796358326334
99832.576382849656511
99829.871960759934154
99827.745703192806104
100142.90135209908476
100144.53314151242375
100148.33244990183448
100157.47121893735311
100169.99273427134904
100180.46268132182013
100184.25515605260443
100180.15039074349625
100170.23508889408549
100157.31331812698045
100142.72542784438701
100126.17246921896003
100108.19915031277924
100091.22549731310573
100079.10266015476373
100075.017331707626
100079.42013449122896
100088.93609644183016
100098.24505300074816
100102.20804767492518
100098.72660894446017
100088.71177023596829
100076.09488050964137
100065.54689311195398
100129.57130015127768
100136.00310727204487
100148.11053114298556
100163.90061854389205
100178.4366658366198
100187.05591965184431
100188.11796941915236
100182.78577696760476
100172.8136818085477
100158.94689520276734
100140.84258049384516
100119.15796322462847
100096.38264886298566
100077.24255949376675
100066.20733053241565
100064.69073688346543
100070.66004017191881
100079.23683342350705
100084.93049768779019
100084.80120641837129
100079.16283713921439
100071.16966654524731
100065.10975039660116
100135.33519493424683
100152.29751744089299
100169.31898246012861
100181.4135384891124
100186.21161350523471
100184.17367028864101
100177.19970151866437
100166.09268367804179
100150.42493955951068
100129.84039313902031
100105.77530817138904
100082.59381467403728
100065.4939657747309
100057.58138655551011
100058.31335072878574
100063.42532551183831
100068.15880523195665
100069.36210889415815
100066.9710471053404
100063.47007825071341
100062.29448146368668
100176.28085921537422
100176.30274948997248
100171.65031036056462
100164.12311047701223
100153.27097997203236
100137.18852625142608
100115.6618369914504
100091.82657857600134
100070.91964309400646
100057.53934972822026
100052.32166888564825
100052.47302149400639
100054.02552314130298
100054.33270225366869
100053.24990488169715
100052.85935128644633
100055.58846763154725
100148.70937175776635
100138.66972468710446
100122.22898717869248
100100.77350350761844
100079.02263658918673
100062.04883389173483
100051.61756568562123
100046.5508653515426
100043.75318749363942
100041.21087598857412
100039.34917485424376
100039.92949244753981
100044.6189245707792
100133.20759986355552
100122.96820997761097
100106.13455781305674
100086.231852793906
100068.01440862522577
100054.18601513287285
100044.53741989402624
100037.06953802387579
100030.59774999093497
100026.10376452950004
100025.6047906861204
100030.02553289143543
100259.81298168217472
100259.61742516944651
100270.38990767882206
100281.70519884349778
100285.34199049544986
100281.5500176675414
100277.57789856768795
100281.01625728937506
100293.2744381614466
100309.65001780552848
100323.64186338429863
100331.70954454997263
100335.67556793366384
100340.02114289827296
100349.32521307915158
100366.59215546268388
100390.9664697983826
100417.1237276771426
100437.64712027859059
100446.19202740991022
100291.30715535512718
100270.26533874154848
100266.86339912698895
100276.40212512640574
100286.7746305870678
100288.93672133205109
100282.51046768946981
100275.57299385046645
100277.21835371058842
100289.28029505092127
100306.18313546857098
100319.82336267145001
100326.58845678636862
100329.43663167666818
100334.78531285455392
100347.91039462170738
100370.5282320275146
100399.26008483610349
100426.93856486734876
100446.34998733302928
100453.24516201356892
100447.97189630329376
100367.11329030871275
100339.00138636038173
100304.29575048408879
100279.32925937022083
100272.93145251617534
100281.3687605503801
100291.32354147375736
100292.01880648973747
100282.8256159475568
100273.26533267060586
100273.20269969146466
100285.28563996787125
100302.76693243561022
100316.29929984055343
100321.94173310541373
100323.7378620278032
100329.91559528792277
100346.58234655304113
100374.12528583646053
100406.66283839118842
100435.46616815921152
100453.65810810028051
100458.86742915172363
100453.08532366837608
100441.16526948651881
100428.69854500039946
100391.10736733443628
100382.46179082294111
100352.98533687701274
100315.28130352641165
100286.73049459311005
100277.89332311761973
100285.49450905156846
100295.36275354665122
100294.76135877463093
100283.13722325027629
100271.00216754581197
100269.32523529685568
100281.46181495721976
100299.70491705209133
100313.26320780099195
100317.92508894455386
100318.68396963928535
100325.45940802372934
100345.24856612014992
100377.16237452314817
100413.05970806378173
100442.8130933270586
100459.72709246102022
100463.26934274499945
100457.06887166261731
100446.17841980628145
100434.24876786215464
100424.37055078671256
100387.12666154718318
100402.89045997726498
100395.77670832053991
100364.87169849655766
100324.24666655762121
100292.43894769214967
100281.58157251040393
100288.72380744955444
100298.7220782453951
100297.09191712221946
100283.24319852239569
100268.42834814342496
100265.51642137792078
100277.82086305115081
100297.06920532110962
100310.80198560799181
100314.57606915512588
100314.24445551907411
100321.40144598322513
100343.90069374786981
100379.76341634537675
100418.62293487308489
100449.15546670819458
100464.78205969631381
100466.75771332258591
100460.29853633446328
100450.35210518568056
100439.02970904002723
100428.11007149919169
100420.64581320340221
100364.69754896039376
100394.75395386191667
100413.00090699737484
100406.34075097164896
100374.18335648499487
100331.00094902735145
100296.49898382301035
100284.16473061745637
100291.19750990322791
100301.47756459649827
100299.17494118661853
100283.28456825039757
100266.07070016999205
100262.08724456191703
100274.64923534268746
100294.91236724036571
100309.02722964216082
100311.86624729946197
100310.42362508263614
100317.77077130382531
100342.58686005072377
100381.89683550801419
100423.36589943079161
100454.43440999132872
100468.86040793823486
100469.44743850688974
100462.7520560232515
100453.63780410929758
100442.9912574916234
100431.13656883097428
100421.43848539608007
100420.38412589817017
100368.09833363533835
100400.49207461414335
100420.95090930176957
100414.93156908694073
100381.40888763623661
100335.84197939687874
100299.18503960422822
100285.65984161755478
100292.98495870520128
100303.55756245779048
100300.76342318963725
100283.09514744930493
100264.14506369395531
100258.86979447182966
100271.9842764538771
100293.25292301780428
100307.85128862343845
100309.84286440715368
100307.29234443914902
100314.73419587739045
100341.37856171900057
100383.50810385025397
100427.20666875581082
100458.65546118008206
100472.11345347983297
100471.4718125280051
100464.53288758170675
100456.09476454851392
100446.08373656356707
100433.39534345398715
100421.62631908569892
100418.71392149884196
100432.54995955337654
99872.887582866227604
99890.258901723689632
99902.884968793776352
99901.407305484855897
99882.198619687769678
99860.071977803905611
100370.14346624017344
100404.63610832467384
100426.35337542882189
100420.46121232208679
100386.21306615837966
100338.75339014414931
100300.56987525841396
100286.50694263332116
100294.13078863846022
100304.95340323868732
100301.82096348635969
100283.02832796706934
100262.54012483214319
100256.61304818808276
100270.13073401228758
100292.21832316750078
100307.22055864162394
100308.53389786340995
100305.02942159290251
100312.48128822162107
100340.41961815180548
100384.56533443924855
100429.89398875452753
100461.58377638283127
100474.39730954331753
100472.76256906912022
100465.61480298182869
100457.70616003585747
100448.11480040612514
100434.9448433547368
100421.612311176199
100417.44599666674912
100431.15740381042997
100462.11129535648797
99848.92794936869177
99874.996480482644984
99892.622398092600633
99905.104701701871818
99902.430996276423684
99881.570319223363185
99858.705921238783048
100370.95723281809478
100407.13525679972372
100429.43269136338495
100423.31086356499873
100388.50709928476135
100339.9978563546174
100301.10879632367869
100286.90693776369153
100294.6752576778963
100305.62287645420292
100302.36018806479115
100282.90521762508433
100261.52882431840408
100255.34741688084614
100269.18507197170402
100291.76422704095603
100306.95584751210117
100307.85155875611235
100303.77538833298604
100311.22064748666889
100339.90191633514769
100385.14193562226137
100431.39362979702128
100463.1990102367854
100475.60487765740254
100473.42605250702763
100466.11476455099182
100458.48055385399493
100449.1380468634743
100435.75576726539293
100421.33912934243563
100416.70623471216823
100430.38194145911257
100462.04181235698343
100498.49954522924963
99749.772954924206715
99729.176242739413283
99708.949190347237163
99691.395773233554792
99678.55813013430452
99671.988013614885858
99672.505405634467024
99679.996957478317199
99693.411169269675156
99711.104352779817418
99730.780508661991917
99806.645005997270346
99801.589328958303668
99796.268058266228763
99795.670331262910622
99800.281930966579239
99808.575351548046456
99817.790433963586111
99826.089796092186589
99834.308077934954781
99842.83973349398002
99850.676252485704026
99856.236782741805655
99857.526620674587321
99855.935228128757444
99854.659518972883234
99856.28766114305472
99860.031005224402179
99862.114417914606747
99857.049298462923616
99842.782815656479215
99823.442672616700293
99807.836602697425405
99804.275421504557016
99816.35011729002872
99841.675470773247071
99872.140301492647268
99897.754406759297126
99910.908984602050623
99908.884759592823684
99894.108665573046892
99872.046394939854508
99850.037873657303862
99834.393969834694872
99828.673097479011631
99833.468746076367097
99845.355910258440417
99754.629977657808922
99762.184059190331027
99770.836333607614506
99779.625272424178547
99787.309616431768518
99792.4716706238396
99793.782231459146715
99790.175576322668348
99781.11357122422487
99766.927146875837934
99748.788353716110578
99728.576826523945783
99708.686303812792175
99691.722191633001785
99680.013034109259024
99675.243397429876495
99678.199807805693126
99688.609953623701585
99705.147724158625351
99725.75362253280764
99747.712502794456668
99799.800533552741399
99802.768841675147996
99812.300221528712427
99828.464391419882304
99847.435714986786479
99863.866380555307842
99873.15028827288188
99875.695609193877317
99874.866280629867106
99873.717946973949438
99873.961876141736866
99874.035816181232804
99871.28464101953432
99866.231031581948628
99861.127863012836315
99859.511649564927211
99862.604208848395501
99867.832553431624547
99870.070154759974685
99865.938928825446055
99856.629725345061161
99846.640218853601255
99843.035438248160062
99849.935580956982449
99866.49382590870664
99888.148242288138135
99907.323521331360098
99917.191252856253413
99914.598218396291486
99900.461480838712305
99879.792065887450008
99859.404272972882609
99845.667227087003994
99842.578019999695243
99850.005913670858718
99864.100221454951679
99749.749216710479232
99754.913244691866566
99761.785476250646752
99769.583737806038698
99777.204933412489481
99783.215322943753563
99786.090430663054576
99784.556910686194897
99777.863409121244331
99766.066934487666003
99750.157797004765598
99731.940635618477245
99713.837444972392404
99698.53524156997446
99688.526676741603296
99685.580390148141305
99690.455399698912515
99702.808487024623901
99721.125115880960948
99743.105463124767994
99765.828287991287652
99816.672578601908754
99841.340084888128331
99872.725407149118837
99903.073520892707165
99923.406812950561289
99929.848011166366632
99924.346307400453952
99912.58892073147581
99901.095554872270441
99893.380334536734154
99888.255835845906404
99882.839510929799872
99875.742203484696802
99868.365495661331806
99864.863857167802053
99867.845906836286304
99876.292897975275991
99886.131706684333039
99892.893539516604505
99894.029599881192553
99890.161683663493022
99884.747139372702804
99882.796503355173627
99886.767158023489174
99896.123980019241571
99907.013499393724487
99913.65279495161667
99911.599854033862357
99900.403456916450523
99883.42294659561594
99866.843195330540766
99856.735633026473806
99856.760369401992648
99866.689354347457993
99747.439507943083299
99751.966144581965636
99758.201307303272188
99765.142668885207968
99771.481152897220454
99775.697830921257264
99776.484196640056325
99772.940114444092615
99764.836232726243907
99752.794970378046855
99738.394819503489998
99723.803226514690323
99711.499392637910205
99703.849467101084883
99702.615847324079368
99708.597039968473837
99721.434380911072367
99739.703369690090767
99761.113565519510303
99782.882619225114468
99847.451852662154124
99882.941883610357763
99923.330609451601049
99957.393513991846703
99976.201583504516748
99976.841460797659238
99962.487654483265942
99941.293232310956228
99921.711857295973459
99908.14118957593746
99900.172991789979278
99894.336495721552637
99887.756787343503674
99880.925099961357773
99877.136324112580041
99879.702033240886522
99889.41478538174124
99904.132455953600584
99918.508169068591087
99927.702796772500733
99928.698237440563389
99922.043021611811128
99911.800352089427179
99904.023790697057848
99901.359925887663849
99904.032917785545578
99907.324386659893207
99906.428342424507719
99898.808163743757177
99886.742385708595975
99874.979455406821216
99868.964939835772384
99871.87989712865965
99883.007262050232384
99742.306309947380214
99743.218240018206416
99746.533729145230609
99751.59888088174921
99757.31821708647476
99762.38559531395731
99765.479689814455924
99765.548841588228242
99762.055328783491859
99755.245533007924678
99746.117126000710414
99736.369365965263569
99728.00830638386833
99723.084501964520314
99723.238769518211484
99729.333791415119777
99741.208979565606569
99757.673474320079549
99776.81807968080102
99796.199337920406833
99931.432363282088772
99970.254762634358485
99999.064913243302726
100010.68294021541078
100004.37022587133106
99984.636065864862758
99959.512685096124187
99936.63169216591632
99920.757312540445128
99912.266680583561538
99908.043876702460693
99904.466712451845524
99900.754836011663429
99898.30251706247509
99900.242962477626861
99908.472622033572407
99922.531969616364222
99939.026008396758698
99951.837765961332479
99956.380556374933803
99950.479855160388979
99937.219542951526819
99922.419888622433064
99911.965612984247855
99907.513249625757453
99907.370283858501352
99906.569381052497192
99902.203739189644693
99894.545722508657491
99887.423274873202899
99884.780638930693385
99888.791753936413443
99740.436830596096115
99739.300314888721914
99740.59623761101102
99743.815359249681933
99748.055686087202048
99752.233612892538076
99755.233517853834201
99756.18227972999739
99754.802308087659185
99751.464928561967099
99747.13393313276174
99743.222775370944873
99741.277522963137017