/*--------------------------------*- C++ -*----------------------------------*\
  =========                 |
  \\      /  F ield         | OpenFOAM: The Open Source CFD Toolbox
   \\    /   O peration     | Website:  https://openfoam.org
    \\  /    A nd           | Version:  12
     \\/     M anipulation  |
\*---------------------------------------------------------------------------*/
FoamFile
{
    format      ascii;
    class       volScalarField;
    location    "0.014";
    object      rho;
}
// * * * * * * * * * * * * * * * * * * * * * * * * * * * * * * * * * * * * * //

dimensions      [1 -3 0 0 0 0 0];

internalField   nonuniform List<scalar> 
106891
(
1.150822973124466575
1.1507569178565073553
1.1506474927037535494
1.1505047715491345528
1.1503450255261660207
1.1501789966531916765
1.1500232637225509258
1.1498816979505719349
1.1497671426825792906
1.1496746216914284222
1.1496134245564582077
1.1610199154641127617
1.1608711477608693041
1.1607337474525574184
1.1606044489542499676
1.1604956767689322827
1.1604275763392395415
1.1604217245046613005
1.1604914896043598826
1.1606230178108365436
1.1607703613994955205
1.1608612442155026301
1.1608314416672542713
1.160662533766859017
1.1603990202569944845
1.1601304176647424526
1.1599474551186945703
1.1598961704394812333
1.159957126354321133
1.1600665079431784488
1.1601617205800969224
1.1602179921805382268
1.1602434930936935675
1.1602518394588923201
1.1602351721374428717
1.1601602499094461063
1.1599915586565294756
1.159728844435428563
1.1594093411630721491
1.1590950854515302826
1.1588438507889142759
1.1586878959392430399
1.15862833828434586
1.1586465251954918276
1.1587123288344320926
1.1587882365796273731
1.1588371557291106129
1.1588273390634851179
1.1587486261150321543
1.1496217950683060849
1.1498015556135865456
1.1500031757828781398
1.1502098815526398123
1.1504047200330660417
1.1505713784565512192
1.1506963297789181144
1.1507712494988122653
1.1507921647022789635
1.1507612471928567732
1.1506838857114083385
1.1505716938403394156
1.1504344782934001756
1.1502875637874536707
1.1501397318462194264
1.1500064801997049724
1.1498859106831145205
1.1497908181387515025
1.1497088771754049308
1.1496558093678976853
1.1610902289408122634
1.1608742644709255654
1.1606725119960030757
1.1605184142989060092
1.1604440427092368449
1.1604675385560632161
1.1605879287489211382
1.1607738099290947353
1.1609648151769993429
1.1610810622749889731
1.1610562250118372507
1.1608755182482990431
1.1605929616123957793
1.1603059481796271779
1.1601120822067172433
1.1600583599410820845
1.1601213532337693035
1.1602329621876696919
1.1603259303565391924
1.1603737397921622954
1.1603896113634197818
1.1603968528044790176
1.1603924239169054466
1.160348671000957177
1.1602227525518464812
1.1600027307533296028
1.159710648085449769
1.1594052409329285158
1.1591434738717114605
1.1589683515605990749
1.158890599084665407
1.1588976853987493776
1.1589629018708489383
1.159051381090071331
1.1591212592304942497
1.1591273546287375051
1.1498085827020181338
1.1499833116614606165
1.1501790382845480387
1.1503798602709540688
1.1505678779478385465
1.1507260268766592581
1.150840306967785498
1.150902109626681602
1.1509098349738624556
1.1508665127724431176
1.150779386293396378
1.1506588066457832387
1.1505150206044860717
1.1503575966767778382
1.1501947370485294808
1.1500360289209832221
1.1498848445341911528
1.1497529587667454365
1.1496373570040050449
1.1495601217396580473
1.1612453935423567852
1.1609195403590670814
1.1606355260918963523
1.1604475540462473315
1.1603913392031162122
1.1604713329834139834
1.1606585398878637161
1.1609008763363570793
1.1611238109623098769
1.1612509345077255407
1.1612292279073264112
1.1610575337437587518
1.1607932094296808945
1.1605289072382223292
1.1603519155943005092
1.160303461799123026
1.1603614398884822823
1.1604658944341306182
1.160554687350026315
1.1606067130911545959
1.16062782343424864
1.1606411806041199153
1.1606450619611543562
1.1606131580596703579
1.1605092986151122059
1.1603092436760600314
1.1600322288994671105
1.1597234776476661455
1.1594456649298703343
1.1592418629333400837
1.1591355000842675782
1.159121830114560936
1.1591822459674776535
1.1592854130344398822
1.1593828550078129069
1.1594247672456439169
1.150146585077562511
1.1503149883868222236
1.1504991502625534494
1.1506830519114144007
1.1508488866772026427
1.1509789987527390132
1.1510583081118634929
1.1510788451317734982
1.1510390922584536888
1.1509431202460120858
1.1508008764502881682
1.1506246919875278145
1.1504279255929057424
1.1502224321572851462
1.1500212930830082669
1.1498355447496797499
1.1496783415604607814
1.1495550661772384604
1.1494830516238789819
1.1609854480791041986
1.160636063707080945
1.1604495321426184784
1.1604492210063241941
1.1606117263487734093
1.1608711934275541822
1.1611452264515682575
1.161352684416058656
1.1614322925552353905
1.161360829927078786
1.1611658837946865486
1.1609133938474056613
1.1606868057855512788
1.1605496993560477925
1.1605233714967511105
1.1605874849917940939
1.1606909294584020209
1.160781455523882677
1.1608336733835207255
1.1608457651357919627
1.1608331896380688075
1.1608066411965984877
1.1607500172852602827
1.1606437733142240809
1.1604692513515502128
1.1602326542710947876
1.1599677336266343008
1.1597223154367339859
1.1595377363297647566
1.1594405228480255676
1.1594307758024529065
1.1594945157606071362
1.1595983829952578592
1.1596978228892449447
1.1501756885390150842
1.1502654912220870997
1.1503860313612612742
1.150532569494447932
1.1506939346365447907
1.1508544012880868035
1.1509954696542041841
1.1510979125403311141
1.151145755639267243
1.1511310530896279314
1.1510522314062925364
1.1509159742705641349
1.1507320870618598097
1.1505183987918023991
1.1502896759798120208
1.1500650182079139583
1.1498573227405317621
1.1496819076639215318
1.1495450056263414318
1.1494620831603621358
1.1611348170547326486
1.1607390646228863407
1.160562355860634387
1.1606136654226058003
1.160836529109303239
1.1611358815639338804
1.1614053018785657212
1.1615591674387926169
1.1615585464722939513
1.161419276487219765
1.1611986466625345837
1.1609740292248749149
1.1608090314592380832
1.1607368220096523359
1.160753788838309486
1.1608347248196910773
1.1609378367610179161
1.1610238112232853513
1.1610659702862657916
1.1610603991794961054
1.1610186173728156422
1.1609555500464781019
1.1608796526791522741
1.1607856251454136132
1.1606579203755538199
1.1604878437838648253
1.1602912679169961052
1.1600993683795959299
1.1599513431140699993
1.1598699889800172524
1.1598619860061312181
1.1599127845191390396
1.1599896608484658866
1.1504346242479155382
1.1505078416848604217
1.150611633948167789
1.1507382599228657138
1.1508737607256063207
1.150999543301143957
1.1510957495743832091
1.1511433893977172094
1.1511295124693108338
1.151048728209540517
1.1509069327648209224
1.1507141762526162942
1.1504898338814530945
1.150251410480299219
1.1500211364806653958
1.1498131931851158782
1.1496419996854001511
1.1495106285059584206
1.1494331071164096691
1.1609647755730212459
1.1607922913091173189
1.1608730708001002707
1.1611310202113733769
1.1614466084896768461
1.1616977556580345698
1.1617975862980323143
1.1617195777857056704
1.1615045601982114665
1.1612359040604915972
1.1609994231271909548
1.1608538902686731387
1.1608142699841250689
1.1608625068334059716
1.1609664487054671689
1.1610893920090499254
1.1611951521492380746
1.161252989637229005
1.1612547791847427359
1.1612029533840813045
1.1611207960677245588
1.1610309864899512888
1.1609445652129841697
1.1608497041403269545
1.1607292722359172643
1.1605846770346208707
1.1604375497510532877
1.1603221218941970339
1.1602599976372849344
1.1602573396036925946
1.1602955243640351579
1.1603374337312881703
1.1506220878867554624
1.1506361166197156543
1.150684974148071138
1.1507666159352947233
1.1508698065781686193
1.1509758522400193037
1.1510623448533392477
1.1511077829843925358
1.1510955639160473929
1.1510176608768949436
1.150876854431031493
1.1506837091704582576
1.1504570076440321369
1.1502163269571534787
1.149982255156184241
1.1497718300875836572
1.1495986990255395721
1.1494678614648592418
1.1493922226447090829
1.1610979875344040746
1.1611819845388215988
1.1614262195502005337
1.1617077969712179542
1.1619098443719146907
1.1619585492479260758
1.1618399464084567807
1.1615953501266746972
1.161305344840686482
1.1610555155768782498
1.1609025131478780679
1.1608579589433305479
1.160901756404987939
1.1609974134500293808
1.1611069571767735908
1.1612032539938748066
1.1612660167210648865
1.1612853454067824099
1.1612665261374952586
1.1612327761807919035
1.1612040432128958312
1.161181953563744651
1.1611504331963102832
1.1610831739679681185
1.1609710816116221022
1.1608328043886142478
1.1607034804568843178
1.1606149288044715906
1.1605765806837742282
1.1605672165130800355
1.1507571486182437415
1.1507469225005626523
1.150778825040756681
1.1508441041099546354
1.1509248819785886653
1.1509972260687315604
1.1510359442804189989
1.151021243203503408
1.1509421127564649634
1.1507982294101399834
1.1505994577474232266
1.150364947676984384
1.1501183323933716895
1.149881806809928797
1.1496783162629551356
1.1495206186502260337
1.149417189483352697
1.1493759483560366252
1.1617110626955446939
1.1618859693478220674
1.1620741409883856843
1.1621860964274230987
1.1621649973048981952
1.1620002830369458025
1.1617244628263609929
1.1614019470392671352
1.1611105585140728547
1.1609107360444810286
1.1608288480814721311
1.1608502685071615534
1.1609366476528222289
1.1610490391558798695
1.161157623375111303
1.1612457152299857643
1.1613036736537967197
1.161335419485026943
1.1613478093090963128
1.1613528938848687311
1.1613453415387378076
1.1613102470316727377
1.1612376269295308084
1.1611252003421879131
1.160992218761171868
1.1608755176082510285
1.1607999413893181906
1.1607585029399081211
1.150830267829459963
1.1507505979992840306
1.1507258043434278605
1.1507514594894703297
1.1508099419382391559
1.1508760174063179527
1.1509214061414452246
1.1509206721030784681
1.1508576630409237396
1.1507282824304250202
1.1505405252022944396
1.1503134307959574922
1.1500725636359483417
1.1498446826647426011
1.1496556678436338217
1.1495206513733886577
1.1494476370550179567
1.1494399803321642128
1.1622743739031757837
1.1623774844402157136
1.1624243709472745767
1.1623689194446888973
1.1621892486211966578
1.1618998229581223303
1.1615506423281984905
1.1612082372251368856
1.160938642732979531
1.1607805240764748067
1.1607389632543216873
1.1607890216035325892
1.1608969068483696585
1.1610333602778417639
1.1611797641829237904
1.1613216420172016718
1.1614479533375685616
1.1615450832150659988
1.1616006543669208373
1.1616001015468788715
1.1615320989317468037
1.1613987696576413278
1.1612176170251999885
1.1610213564478375492
1.1608463862540234768
1.1607166332818090737
1.160627732752398833
1.1507009639692602487
1.1506244492280854885
1.150609920339901171
1.1506435889597066424
1.1507014927245295954
1.1507557868961975078
1.1507799136878023027
1.1507545996919528175
1.1506700464612660273
1.1505293769826046013
1.1503464931370099844
1.1501434411621376253
1.149945989367643806
1.1497799119647111876
1.1496638180293161646
1.1496075735886484015
1.1496144614780039461
1.162413843898739918
1.162475719568250021
1.1625592213531492636
1.1626046004729539973
1.162561659476504472
1.162404729096078615
1.1621387367642379562
1.1618010823028945833
1.1614480495979351282
1.1611322459466590917
1.1608932800541720276
1.1607494052530258344
1.1607063128029140309
1.1607554638814705505
1.1608831229499998461
1.1610598562725229499
1.1612551392341647905
1.161432330819245351
1.161564645512927374
1.1616219575234965067
1.1615917362202416996
1.1614742441213241619
1.1612880737548452181
1.1610726209223993788
1.1608685655962109884
1.1607047189048484981
1.1605930649910856101
1.1504781365430747364
1.1504608690105702085
1.150497424382458389
1.1505635893292767147
1.1506308942302485576
1.1506724793186686728
1.1506684429756621757
1.1506092418027857871
1.1504975248753213091
1.1503470026366038326
1.1501779265029641319
1.1500140866062611433
1.1498787459754187257
1.1497901861006525337
1.1497587761795626804
1.1497855262176184254
1.162482602443691615
1.1625623820455843749
1.1626681675070629218
1.1627296767793029453
1.1626893681333052566
1.1625259145333832755
1.1622698151189614357
1.1619702308640107447
1.161667771656621273
1.1613845131869744431
1.1611340747813794216
1.1609355430407719556
1.1608113626860165901
1.1607834361561182313
1.1608501615327111445
1.1609891758664045991
1.1611576009677084809
1.1613192433563384043
1.1614444025328678478
1.161514487139619467
1.1615171952573963843
1.1614449452881814295
1.1613005793057928905
1.1611045807969224697
1.1608906602189084101
1.1606934567747073661
1.1605370587735550636
1.1604236065197783834
1.1502598493443085825
1.1502819566351316638
1.150339838086354538
1.1504060573801353495
1.150455863023605918
1.1504710114166389889
1.1504438188178678359
1.1503767707007888088
1.150281059855770005
1.1501739080951027816
1.1500726159800223058
1.1499962287626848134
1.1499537069052800931
1.1499556906743366724
1.1499905762243205487
1.1624311410240553144
1.16258081254031298
1.1626819541309567629
1.1626712406247801113
1.162538605980407036
1.1623275818303779872
1.1620914436336222675
1.1618585455624674818
1.161627143576492216
1.1613882616776887158
1.1611540436890215311
1.1609639563491092051
1.1608597754413971792
1.1608577677549303253
1.1609358342422799737
1.1610518034666987841
1.1611700215264066927
1.1612703339882155529
1.1613450358097592297
1.1613769863370353441
1.1613499181474118416
1.161252365034636691
1.1610894372064932689
1.1608866094018019943
1.1606807992093584048
1.1605004007679045053
1.1603625774444596974
1.15016347328196189
1.150179286067763762
1.1502125684760280411
1.1502453672358337045
1.1502649439863514846
1.150265135509119574
1.1502470449623303228
1.1502163247661434387
1.1501824930870878649
1.1501545393719285748
1.1501433439095734013
1.1501496296704316613
1.1501818066009321662
1.1502233449610632654
1.1625517853296760684
1.1626485850397252353
1.1626096639381284792
1.1624536193387056127
1.1622428856282536191
1.162039618310846345
1.1618683876491424645
1.1617107426092210254
1.1615380769469281219
1.1613480477742186281
1.1611722219995472827
1.1610513268316731139
1.161001404325911146
1.1610032164245900344
1.1610238218231545559
1.1610445745504021087
1.1610648738717197492
1.1610912958100334524
1.1611173252377333664
1.1611221322096363373
1.1610780883279185893
1.1609750495343313936
1.1608237652264563611
1.1606478469386125596
1.1604709321234527586
1.1603192513526334739
1.1500923114076417875
1.1500829495971427452
1.1500830269461699285
1.1500871145718547517
1.1500935674408878651
1.1501040007492215889
1.1501197104505720414
1.15014317348010775
1.150175058522322491
1.1502158349985274199
1.1502602039347946672
1.1503109351496467738
1.1503543555136190868
1.1626257012154941339
1.1625861310674514559
1.1624411721793412866
1.1622591445285237466
1.1620971990278905484
1.1619703269547585478
1.1618566541673776005
1.1617268711450974283
1.1615742011391718691
1.1614193545770241656
1.1612899612955169815
1.161193465483231213
1.1611160665419548721
1.1610403255493049191
1.1609665749630027065
1.160911818391620498
1.1608940346970384461
1.1609109084867577089
1.1609388474994493112
1.160942079977288488
1.1608945028610202499
1.160792996313840808
1.1606534762653386572
1.1605013862341155839
1.1603670340067315792
1.1499439663364046105
1.1499358858262422878
1.1499449305363107499
1.1499682006664955214
1.1500057864448103295
1.1500568971140037178
1.1501205995663330572
1.1501915091054764062
1.1502656180124486429
1.1503327605294277891
1.150395147826801745
1.1504352804251585241
1.1624378393739589477
1.162298047998556072
1.1621439224403220525
1.1620227292717320022
1.1619413599140728799
1.1618733821527380545
1.1617905438646098926
1.1616835723687541915
1.1615635740222445271
1.1614440582461824647
1.1613257138286749992
1.161196634449049192
1.1610536044752859386
1.1609115848921671699
1.160799825627115478
1.1607445974930221677
1.1607514757737154021
1.1607956256020943719
1.1608369136655616316
1.160836083486552095
1.1607778784310356368
1.1606694982903817959
1.1605395082337570667
1.160419363394912029
1.1622124352925546908
1.1620759723749811698
1.1619755029700857829
1.1619176542382327888
1.1618800156415578506
1.1618342528132952207
1.1617681747815402638
1.1616858669795322445
1.1615919586289600307
1.1614812902695768049
1.161340031090219993
1.1611646804830320079
1.1609698631064282459
1.1607920923349146491
1.1606693707503463742
1.1606171268259903862
1.1606241255082772046
1.1606557729912383436
1.1606711928466817429
1.1606478472158365811
1.1605864180746456871
1.1605068371692022211
1.1604348691868040522
1.1618772495945497436
1.1618106915581736249
1.1617851473113387506
1.1617691609037719136
1.1617418283939400236
1.161697127851737843
1.1616363915570588894
1.1615515921652432851
1.1614270485953848144
1.1612522023904165991
1.1610360968992128328
1.1608163446010801856
1.1606407048009799166
1.160540986776863015
1.1605181485524498353
1.1605398888108382494
1.1605664091011349548
1.1605680994812748175
1.1605385384232498325
1.1604914509690489322
1.1604484467783442447
1.1616464860705113527
1.1616190733188873629
1.1615725755810568653
1.1615091373545343156
1.1614162310033326886
1.1612739746147668907
1.161080472451160972
1.160864629953988203
1.1606740760342828533
1.1605508279019354223
1.160502087652965697
1.1605032848972134385
1.1605168773425331707
1.1605145337729680932
1.160488517889975757
1.1604511274609230487
1.160419877761090568
1.1613488143123567031
1.1612606487084626838
1.1611148614909507781
1.1609255924720041087
1.1607356771360197722
1.1605906235263854231
1.1605065536411003357
1.1604720574719964432
1.160456628878544949
1.1604371016471257683
1.1604105351497984167
1.1603866095739350239
1.1603765097856708621
1.1612446738425203918
1.1611545603956510142
1.1610029957844529847
1.1608231274937614863
1.1606590830417202742
1.1605367413885008254
1.1604546918539944134
1.1603935015680386655
1.1603374985204100156
1.1602878579610420573
1.1602558178110853326
1.1602448568986603039
1.166382739663054835
1.1665970668576706171
1.1668848770308644092
1.1671372798730881293
1.1672525902651964547
1.1671992137463935713
1.167016164426771585
1.1667681415870858608
1.1664933708802536216
1.1661987658381018917
1.1658859851323497558
1.1655789292377933819
1.1653330589142423257
1.1652058838833416754
1.1652329466357853605
1.1654170850667671111
1.1657179811147464488
1.1660575531487469281
1.1663499245420412276
1.1665329347977684282
1.1662928568846899768
1.1663499307984470654
1.1665453665935672234
1.1668426089728050066
1.1671254038266412056
1.1672871755943072802
1.1672867090191023642
1.1671606474027553801
1.1669735581834550509
1.1667543156134805304
1.1664916961678539753
1.1661680143258097431
1.1658075641955782942
1.1654842414740653744
1.1652865170805826178
1.1652726772146830836
1.1654481438621466793
1.1657573880383831355
1.1661037294326170866
1.1663926069038266231
1.166566822781805568
1.1666253293482873321
1.1662019726397985231
1.1662465846531966385
1.1662151718912385778
1.1662466323988824879
1.1664243763070578641
1.1667212440296417242
1.167014898658684352
1.1671869982090830042
1.1671958135578164306
1.1670898544774108707
1.1669369199996197928
1.1667666026486789299
1.166550127322781627
1.1662509400262506265
1.1658851026598573419
1.1655346005521136643
1.1653078469076656454
1.1652789370612037789
1.1654531643764978188
1.1657625775033897408
1.1661017475511290531
1.1663774975488709895
1.1665431690058960523
1.166604103880564125
1.166605841020132095
1.1666104879332952482
1.1660314717661184325
1.1662212882344458187
1.1662230909810724633
1.1661293081206307587
1.1660819393628978347
1.1661708001748243291
1.1663673675613435154
1.1665434261572931174
1.1665746816404558572
1.1664359771473455929
1.1662035984252490106
1.1659717957158046708
1.165787292779369988
1.165616576355345213
1.165405227548053757
1.1651526111648309314
1.1649284399946495672
1.1648327863527054848
1.1649283957550709001
1.1651990226787083405
1.1655571869794771889
1.1658949492510031209
1.1661355321895745529
1.16626239830393863
1.1663040355758418354
1.1663080595187738098
1.1663105164310196837
1.1663372594837884133
1.1656889253454354449
1.1659261065249881817
1.1659519039170784804
1.1657496976679198042
1.1654261417684002033
1.1651280593600998881
1.164954064615864926
1.1648840356440386401
1.1648018671442152971
1.1646000356092320871
1.1642900912403020275
1.1639838384199676646
1.1638067677834900149
1.1637988086819399669
1.1638944426407182853
1.1639829265717425155
1.1640140263125291487
1.1640241356457823318
1.1641027415239699749
1.1643150211442105935
1.1646470004713878055
1.1650126097338875386
1.1653125959281107615
1.1654820934485325967
1.1655197929309319971
1.165460098219265328
1.1653396179494523999
1.1651756646009188145
1.1649852838043934788
1.1647980959682713298
1.1641232967565620093
1.1643181290602750977
1.1644316550247266751
1.1643517041907669451
1.1640675784014691274
1.1636924186763855094
1.1633858638797762719
1.1632589359526410711
1.1632896191283044196
1.1633433231431868915
1.1632836548301461743
1.1630954231672578914
1.1628775073629902259
1.1627547241550948431
1.162764240710153496
1.1628439342652019395
1.1628856703334986555
1.1628478386307050663
1.1627859748024842457
1.16280579109699711
1.1629781879200506989
1.1632781104150744511
1.1636008040065537461
1.1638364149997773023
1.1639255103452925688
1.1638846505713349444
1.1637658717865384528
1.1636116202339230608
1.1634345937083887534
1.1632427444057380495
1.163068572620273633
1.1629685730090970619
1.1632043617038043681
1.1634133290992687559
1.1635314004757950634
1.1634380122444736294
1.163118776500631002
1.1626965112789016121
1.1623417602128931492
1.1621728162094122627
1.1621744770590307638
1.1622037158359785902
1.1621218686871013226
1.1619130298596349604
1.1616883835553637461
1.1615737271856991786
1.1616129956417426961
1.1617254593943160401
1.1617886450978875956
1.1617498194225428509
1.1616716345162532154
1.1616727992810063075
1.1618306773677427035
1.1621171214784253856
1.1624182482425102769
1.1626183400124909806
1.1626675434929441
1.1625966365769089261
1.1624711657851591884
1.1623334902583730699
1.1621851546597257165
1.1620170005742069819
1.1618570396578415949
1.1617692645789003958
1.1618190442900764303
1.1594825048961032721
1.1596532871070079906
1.1597890733477431713
1.1598137211031220861
1.1596902740015502253
1.1595347592065303743
1.1625257375688005101
1.1627672814974900906
1.1629087033914897731
1.1628250767083765371
1.1625054318055267899
1.1620707613883869413
1.1617066565554092783
1.1615392473772865323
1.1615537759043983446
1.1616001424057518232
1.1615342298167696811
1.1613369974240419502
1.1611210111043055448
1.1610219694918948452
1.1610845662334638995
1.1612227050696597441
1.1613063367888296629
1.1612766203112334651
1.1612029685875402407
1.1612157722322415943
1.1613970323842168764
1.1617156186728923029
1.1620492690590857876
1.1622735361085867467
1.162342028997768173
1.1622892700649714026
1.1621893841661163904
1.1620838565811626442
1.1619662528783378797
1.1618198700236701537
1.1616701908077824434
1.1615930139518768627
1.1616615396118858961
1.1618744790584061288
1.1586493547620746458
1.1588715940503728774
1.1590213055798768149
1.1591287401005418989
1.159111724899443141
1.1589414940029587608
1.1587485984403318451
1.1623262738709974062
1.1626086325671585175
1.162781848201613677
1.16272313291508822
1.1624268033103934972
1.1620125851206848377
1.1616724087553464972
1.1615338291294021733
1.1615789077096145832
1.1616552923987113477
1.1616171591530828344
1.1614442326953924312
1.1612509784212947661
1.1611797279005875438
1.1612742190459843794
1.1614447425246903212
1.1615579598484762069
1.1615532646299637776
1.1615039647779994425
1.1615461223599408136
1.1617625736922507773
1.1621183055378030424
1.1624871151336462205
1.1627399106677580587
1.1628330803277999728
1.1628042205112321117
1.1627310548989906458
1.1626550834839239901
1.1625660691499895005
1.1624441430504777184
1.1623118479116674173
1.16225722295133016
1.162351954683565447
1.1625962796207220951
1.1628849262804483722
1.1507879670007434836
1.1505503063907203121
1.1502297179092506596
1.1498512308745409971
1.1494555168559170699
1.1490731644818810153
1.1487475903156616486
1.1484960030074857773
1.1483449647764123469
1.1482836578273745154
1.1483254622700642678
1.1596826058499631884
1.1594652347939340409
1.1592686594891725704
1.159158988264175294
1.1591522265332532271
1.1592309021464171082
1.1593540378710991412
1.1594813999828474937
1.1595961848885587564
1.1596858572495905015
1.1597369196548021897
1.1597403262346428487
1.1596891907565847202
1.1596063148141710908
1.1595274569024642819
1.1594799839642730976
1.1594587841918644333
1.1594305187766449361
1.1593438443264694193
1.1591744064581315232
1.1589483348487614744
1.1587329779902046933
1.1585947212045473176
1.1585647806143213323
1.1586292892744567418
1.1587308507912854605
1.158799372572987485
1.1587850789727824896
1.1586766423495666878
1.1584996963052842656
1.1582972533829580808
1.158119571755257704
1.1580025062736825081
1.157957857123518508
1.1579766559038897622
1.1580247275299582199
1.1490117757381013153
1.1491963305628332126
1.1494264958191529047
1.1496914666186885956
1.1499737692289533353
1.1502492980990721705
1.1504899527317440366
1.1506664583327503859
1.1507535729473565844
1.1507348378503010622
1.1506069808838290669
1.1503781396788950175
1.1500721041464636585
1.1497183822468013403
1.1493577782492070405
1.1490222223076684838
1.148748314102883139
1.1485512523519258998
1.1484469552066844944
1.148424156974387822
1.1484850055371098598
1.1596682800913753475
1.1595259744262758073
1.1594596588552710248
1.1594976919454949016
1.1596207993422809057
1.1597784697229203132
1.1599101344855013984
1.1599893252457811332
1.1600173884007050074
1.1600034953539941629
1.1599591915194391589
1.1598801534501930188
1.1597594244799369623
1.1596172505743529424
1.1594852249892422247
1.1594009209315194742
1.1593773108048344156
1.1593904120646909561
1.1593903705257875281
1.1593378519121884107
1.1592300001563897727
1.1590918092954305418
1.1589732444067259998
1.1589061981533461676
1.158888887545446833
1.158896205101932475
1.1588839034757485447
1.1588154982122274017
1.1586819586877949995
1.1585002880595427488
1.158310905592242479
1.1581584620659490792
1.1580756566236842797
1.1580727290536654284
1.1581289066218789507
1.1582015789443562692
1.1490472239909352847
1.1491700815909657862
1.1493415596309368709
1.1495556221828329146
1.1497991100206175208
1.1500504656579284557
1.1502819191400701637
1.1504632151761868819
1.1505671613062964376
1.1505741456569640313
1.1504778968329933964
1.1502845850335396971
1.1500166299172172035
1.1497028483958360301
1.1493839117815030093
1.1490910019304430012
1.1488590205683433254
1.1487022150780568097
1.1486328220607291417
1.1486390699916568803
1.1487169757128465886
1.159703022096213676
1.1597467520844815247
1.1598930449076003679
1.1600953062980763342
1.1602752932973250388
1.160378253312771557
1.1603888490765172925
1.1603250631530959147
1.160223148247525371
1.1601093852239916515
1.1599838473437336095
1.1598397518029985864
1.1596833514539564014
1.1595405575811974508
1.15945354835689729
1.1594451855552425634
1.1595018268026011654
1.1595795845425707071
1.1596280133724579109
1.1596119795749886272
1.1595248594374272244
1.1593880774806748502
1.1592433521355902659
1.1591184139343628789
1.1590233914796055359
1.1589449607743858017
1.158854452383124789
1.1587301004621062273
1.1585751779679294149
1.1584148171583585896
1.1582877232354036323
1.1582249831755380143
1.1582354794744804671
1.1582995893353484895
1.1491647721022617556
1.1492713724766059347
1.1494254696236514413
1.1496188902824286959
1.1498352598553263082
1.150050336273637841
1.150235663644792572
1.1503634496807912946
1.1504106887663898551
1.1503662196846120569
1.1502314970334512889
1.1500247900818167945
1.1497700438681923707
1.1495059263877380751
1.1492598210987283736
1.1490668528949963267
1.1489364552465723968
1.1488819883320713355
1.1488873542511588433
1.1489507172747459585
1.1598650521628548482
1.1600019285515401624
1.1602442849469494224
1.1605087812451990725
1.1607084264836127208
1.1607895619207189153
1.1607428391933449774
1.1606054308493747307
1.1604306183031467548
1.160254320155094776
1.1600861528812165258
1.1599179063069282591
1.1597466655943793334
1.1595928818938017191
1.1594925020098456603
1.1594740558062601732
1.1595384998395279474
1.1596575777722613054
1.1597737629661994951
1.1598331791973806038
1.1597982642330391112
1.1596644297889155961
1.1594628733746983329
1.1592490625407541049
1.1590583892353591988
1.1589125605448640233
1.1587939706853647159
1.1586803050608689425
1.1585588608888428563
1.1584455846579269078
1.1583660144332446063
1.1583435822024532591
1.1583809923607613079
1.1584528214591245376
1.1492621042878599091
1.1492949605483342435
1.1493751307420063679
1.1495014597055577266
1.1496641678475156834
1.1498455681805606066
1.1500212764631139173
1.1501646766949313871
1.1502509627663393132
1.1502643161779257941
1.1501990262068488846
1.1500652303781706554
1.149879984480013162
1.1496744004457888355
1.1494729665621776782
1.1493065824915273954
1.1491861616988034989
1.1491238524665432497
1.1491082877905767212
1.1491400178528845544
1.160390818375778732
1.1606375864343476678
1.1608689344251761355
1.161011095145054739
1.1610294343993590171
1.1609288392433563253
1.1607486603757988242
1.1605377375459275946
1.1603364775316826751
1.1601619049503681946
1.160009125703234556
1.1598686959630430948
1.159749085924443035
1.1596683450268652216
1.1596504950998407502
1.1597027652936111597
1.1598092850089303241
1.1599287282977717162
1.1599981487281421089
1.159970093277784331
1.1598213971309745407
1.1595782842049568995
1.1592980000230621584
1.1590450226515189858
1.1588531038315879051
1.1587280631806606834
1.1586430501856077591
1.1585785571927593729
1.1585299684425569566
1.1585117393038810718
1.158532548402728457
1.1585846946332207796
1.1493661022386396642
1.1493669876916725592
1.1494158017991755738
1.1495109783292301042
1.149642304691758099
1.1497921894122480335
1.1499376964011245317
1.1500546596819880563
1.150123259981846946
1.1501319271829701929
1.1500793111361051757
1.1499740470698098793
1.1498341787311108231
1.1496807054073552301