/*--------------------------------*- C++ -*----------------------------------*\
  =========                 |
  \\      /  F ield         | OpenFOAM: The Open Source CFD Toolbox
   \\    /   O peration     | Website:  https://openfoam.org
    \\  /    A nd           | Version:  12
     \\/     M anipulation  |
\*---------------------------------------------------------------------------*/
FoamFile
{
    format      ascii;
    class       volScalarField;
    location    "0.014";
    object      rho_0;
}
// * * * * * * * * * * * * * * * * * * * * * * * * * * * * * * * * * * * * * //

dimensions      [1 -3 0 0 0 0 0];

internalField   nonuniform List<scalar> 
106891
(
1.1508223252006877235
1.1507578502807940257
1.150650356276522901
1.1505096200976632215
1.1503515381223778924
1.1501865014713177349
1.1500308621951293997
1.1498884174932013646
1.1497721053785459056
1.1496771329384942728
1.1496129895760636153
1.1610173154349892055
1.1608698513796804619
1.1607323705498922006
1.160601976795846868
1.1604922117569000939
1.1604240105032235242
1.1604193586155717721
1.1604914139732067646
1.1606251863951428938
1.160773242749577161
1.1608624874142123851
1.1608292416275778347
1.1606569713546548428
1.1603921439177753427
1.1601251816562154762
1.1599461759826050766
1.1598990424286439449
1.1599624804560089153
1.1600718995511114517
1.1601658715931728594
1.1602211654509426708
1.1602467322652594284
1.1602556233529777163
1.1602385652005593464
1.1601615217722018869
1.1599894012477969252
1.1597232385707019198
1.159401595966247589
1.1590870099433627782
1.1588369125638962043
1.1586828192099156709
1.1586251326690946151
1.1586450533585925804
1.1587120850502776737
1.1587885681203715649
1.1588373061989585278
1.1588265143206992747
1.1587467657704102475
1.1496237869777403695
1.1498038581133906977
1.1500052393205986156
1.1502112612922574808
1.1504051743909524674
1.1505708595172743358
1.1506950706743968027
1.1507697098592994944
1.1507909121097636973
1.15076087189230436
1.1506848871004973223
1.150574305170515288
1.1504386351871802585
1.1502929285799534664
1.1501457296309343104
1.1500123666839230374
1.1498909137857076246
1.1497942865565360382
1.1497103397028554106
1.1496549688564889902
1.1610861448468599022
1.1608699995652380643
1.1606680843879875198
1.160514407022634531
1.1604413824616839346
1.1604672054751108412
1.1605903043409977471
1.1607781783344952586
1.1609692216510405505
1.1610830254834034747
1.1610540325102407522
1.1608695431034401491
1.1605856062971064979
1.1603005648796336224
1.1601109711892900744
1.1600617090744949067
1.1601271404774489149
1.1602385538045745239
1.1603299318600106549
1.160376383549981405
1.1603922291605401895
1.1604002602406453537
1.1603958566140999409
1.1603503991295933684
1.1602211893953475741
1.1599974493163689448
1.1597027270545718913
1.1593964561568577132
1.1591355492326980148
1.1589624017061499472
1.1588869141304640742
1.1588962187219558064
1.1589632785442045559
1.1590529947225569618
1.1591229691137443503
1.1591278570156167138
1.1498106701647585748
1.1499856215834751705
1.150181131132501644
1.1503812962048423074
1.1505684031575711401
1.1507255831789069411
1.1508390734455546944
1.1509005105508016698
1.1509083983393004758
1.150865716560406371
1.1507796192591535078
1.1506602281235374097
1.1505175096391979661
1.1503607982860930559
1.1501981684231379344
1.1500391524752575645
1.1498871532377776816
1.1497540787447269039
1.1496371044936353201
1.1495584223488350961
1.1612372227755713983
1.1609117210619555038
1.1606292092196224264
1.1604436698931983596
1.160390546874432216
1.1604737014825774466
1.1606634048781121482
1.1609068237522519595
1.1611286983497663972
1.1612527057531636387
1.161226883567039847
1.1610518611204951878
1.1607866705620326631
1.1605245031078661455
1.1603515766595204894
1.1603071648067500021
1.1603671769834713601
1.1604712906163319186
1.1605583584735810199
1.1606088582048492697
1.1606297233653781742
1.1606436942571609627
1.1606479391074944196
1.160614836047442866
1.1605082990587314296
1.1603048334049907986
1.160025052077958696
1.1597151037391164596
1.1594377915623339526
1.159235655073159732
1.1591316084930556318
1.1591203868715445058
1.1591831599583293233
1.1592879509081106537
1.1593857047646847214
1.1594263637939112854
1.1501485692822228657
1.1503168447606764158
1.1505004533571483449
1.1506835240451813718
1.1508484286949860476
1.1509776782092471237
1.1510563735353995796
1.1510766860896586294
1.1510370614280962531
1.1509414896958223284
1.1507998274498185687
1.1506242149609509084
1.1504278228358797431
1.1502224027340546275
1.1500210570120168452
1.1498348680250507492
1.1496770732467593845
1.1495532147319469374
1.149480665640908672
1.16097399115456823
1.1606282493083655005
1.1604465145629216938
1.1604509972019061426
1.1606171272860572596
1.1608782196855360613
1.1611517008695222408
1.1613566456813717576
1.1614326131243606355
1.1613576717273805805
1.1611607151857483711
1.1609085829098488851
1.160684404528858904
1.1605508421348222914
1.1605275762660141048
1.1605930197746958665
1.1606958660832000785
1.1607845728574532895
1.1608352753604207486
1.1608466298904340785
1.1608345003060536182
1.1608084560585798517
1.1607515173042988188
1.1606436566731672677
1.1604667097026746259
1.1602275526775545078
1.1599611799705122905
1.1597155749197032293
1.1595321073071409579
1.1594368144316249403
1.1594294506412254897
1.1594955117411565038
1.1596010509948251332
1.1597009003057654475
1.1501769005874538099
1.1502670392569300795
1.1503876317937524743
1.1505338745880888673
1.150694590729621325
1.1508541741161997241
1.1509942421917684907
1.1510956747197569339
1.1511426804764102183
1.1511274463472198626
1.1510483516571370366
1.1509120280268623215
1.1507282293738980705
1.1505147270472391163
1.1502861802900277155
1.150061639099190014
1.1498539986516298494
1.1496785994981739698
1.1495417795550091355
1.1494590266289608227
1.1611204486387012302
1.1607303632108258995
1.1605605820431157404
1.1606178835742337885
1.1608442977891191283
1.1611441470260557285
1.1614111714422670207
1.1615610417196557957
1.1615564285207424788
1.1614146780395921965
1.161193855238649375
1.1609711586774116299
1.1608092272303272008
1.16073992967793993
1.1607587242589889609
1.1608401371339647223
1.1609423059522887556
1.1610264964110141861
1.1610669598195320074
1.161060403081128678
1.1610187484364431487
1.1609564665799014804
1.1608813436775715644
1.1607871557563689269
1.160657995837623524
1.1604857853003627266
1.1602872984550407498
1.1600944751985964309
1.1599467534531289203
1.1598666907708468088
1.1598606129137800647
1.1599133310744413894
1.1599915548351726891
1.150435924685384137
1.1505095071059374678
1.1506133530762223671
1.1507395622943925595
1.15087419917646816
1.1509987474752676473
1.1510934943492634464
1.1511396173508434693
1.1511243920449691913
1.1510426080559854611
1.1509002355949862206
1.1507072999996406093
1.1504831464126588081
1.1502452189550556039
1.1500156285000813217
1.1498084332912175132
1.1496379375350522789
1.1495072195933244696
1.149430310890752871
1.1609559443549379854
1.1607914804793160179
1.1608787087230763024
1.1611398125275764759
1.1614547128968100154
1.161702144094007183
1.1617968674573881938
1.1617146539466538524
1.1614980053685144412
1.1612306133034788758
1.1609974708976207314
1.1608556745906697394
1.1608188459320765151
1.1608683047248886666
1.1609720855370582182
1.1610938400254351421
1.161197920800882466
1.1612539526986340732
1.1612545487082210904
1.1612027148501924412
1.1611216586893644553
1.1610334042137158139
1.1609478901005199081
1.1608524084839448864
1.1607300540178913106
1.1605831801473125431
1.1604345400191544702
1.160318716311665499
1.1602572861427731254
1.1602558985088524679
1.1602952989802977068
1.1603376748784339778
1.150623066427124197
1.1506377787126518264
1.1506871411588894816
1.1507688811253693473
1.1508715428527793723
1.1509763547156708352
1.1510610398521599063
1.1511043491318035947
1.1510899993850127743
1.1510103290629540851
1.1508683569208464359
1.1506747853480634447
1.1504483500959261644
1.1502085074148169497
1.1499756674953884872
1.1497666759146796256
1.1495949966308700585
1.1494654622869029392
1.1493908662311638214
1.1610977287700858795
1.1611875084369531752
1.161433996422960746
1.1617139525238433517
1.1619116713873336444
1.1619553756368712349
1.1618329517863272837
1.1615870241316956779
1.1612987294762184831
1.1610527280696694152
1.1609039906489624361
1.1608627014011627665
1.1609079430557940338
1.1610034265362236816
1.1611118394556454447
1.1612065810553549028
1.1612676905856069709
1.1612860390834593982
1.1612672204311853541
1.1612347564710758796
1.1612078687086337947
1.1611868000260139322
1.161154863386195002
1.1610856572641237161
1.1609711426675592971
1.1608309986671876413
1.1607009311378679861
1.1606127505059520288
1.1605750761074289379
1.160566045201918417
1.1507586562929073004
1.1507495382128860584
1.1507821451919639788
1.150847424397051677
1.1509273564969533243
1.1509979782130952408
1.151034335536571751
1.1510170501499705775
1.1509355376547694139
1.1507898586563869436
1.1505901669522768938
1.1503557253943306193
1.1501100758158186999
1.1498752011424329122
1.149673747995916484
1.1495181745730516099
1.1494167229941802955
1.1493770429503411545
1.1617146275371990072
1.1618904684551960571
1.1620768525795537318
1.1621851682589088295
1.1621600533382039355
1.1619921408267621654
1.1617150497842638757
1.1613936521309495831
1.1611054802923332918
1.1609098956238510514
1.1608318013492873177
1.160855605883057251
1.1609427447624338647
1.1610546482969275051
1.1611621744279507773
1.1612491860536375832
1.1613066788739483393
1.1613384650051319369
1.1613517413777822984
1.1613577597560305055
1.1613504033443726726
1.1613144754597684027
1.1612400002612766059
1.161125317548130198
1.1609907392071985299
1.160873713163534271
1.1607984333928178522
1.1607571877838596119
1.1508312437984555832
1.1507532559879112277
1.1507299480805355252
1.1507564232363198808
1.1508147528414887084
1.1508796274273997984
1.1509228729856193496
1.1509194052429707611
1.1508535661600391986
1.1507217810490633081
1.1505324416467219706
1.1503048904915920136
1.1500647291018628593
1.1498385465311298237
1.1496519028688843012
1.1495195257459795979
1.1494490445729055317
1.1494434585730135545
1.1622755047367108183
1.1623773352416473248
1.1624219276656153621
1.1623636933032071017
1.1621814268172008244
1.1618903929194546176
1.1615412978433177216
1.1612008369547399678
1.1609345658743721597
1.1607801527630188243
1.1607416474885867697
1.1607935887975637801
1.160902317565718711
1.1610391030784388278
1.1611857136594687656
1.1613277598893763098
1.1614542272213670415
1.1615512067792106432
1.1616061766799665733
1.1616042926095473398
1.1615343683333676505
1.1613989294483839654
1.161216075902231859
1.1610190220313805209
1.1608442370935732058
1.1607151323684943289
1.1606265308575580697
1.1507036837890960435
1.1506292620213893763
1.1506162261823449366
1.1506504027546629043
1.1507076466922974145
1.1507601865034955413
1.1507817274703013855
1.1507534579492768589
1.150666101754615589
1.150523330621814333
1.1503393994269608402
1.1501365268220460347
1.1499404340454348894
1.149776653706826357
1.1496633933979925057
1.149610023396866465
1.1496193922893716
1.162413814769744258
1.1624760641552980278
1.162559164454594951
1.162603122481811635
1.1625579444348792535
1.1623985058290011718
1.1621306149493522142
1.1617922337266970434
1.161439877075696625
1.1611258409531064473
1.1608892495466180961
1.1607480183662211015
1.1607075175347716378
1.1607592364765570991
1.1608890369933166919
1.1610675021700580523
1.1612635939346165337
1.1614407553959629205
1.1615720391059562999
1.1616272999062187132
1.1615945301830545855
1.1614742759841376607
1.1612859528129031439
1.161069420479549974
1.1608653016812655601
1.1607021003166024808
1.1605914408958619699
1.1504836649868039888
1.1504679448256158736
1.1505051189157355918
1.1505708192687054137
1.1506365791373913687
1.1506757694751623688
1.1506688857526714553
1.1506069046486235852
1.1504929726538075663
1.1503411928768858541
1.1501720132166142196
1.1500092251507514352
1.1498759112809091576
1.1497899856790099182
1.1497613792486327533
1.1497906456625723859
1.1624842045289198733
1.1625652345601544813
1.1626709481597319318
1.1627307069696977138
1.1626874819963701757
1.1625213304566499595
1.1622637949276057867
1.1619639133303687473
1.1616615227323567883
1.1613783797963181943
1.1611283262157601204
1.1609310351748167722
1.1608093205253711133
1.1607847159362076894
1.1608548372769400547
1.16099626796300881
1.1611657343499330874
1.1613272275728647731
1.1614512148764737365
1.1615196005888752673
1.1615199520652939036
1.1614450709301904485
1.1612983123952260733
1.1611007781222242308
1.1608864819824871173
1.1606899993423209771
1.160534902673167057
1.1604228361748829546
1.1502667728217439436
1.1502890325086929657
1.1503460809277057386
1.1504106259417368197
1.1504582108172560773
1.150470921620231346
1.1504414647445646569
1.1503727500865974509
1.1502761554721876447
1.1501690134474824578
1.1500686741251944234
1.1499939875183500249
1.1499536252006083981
1.1499578351493164874
1.1499947427877639239
1.1624368839230629913
1.1625863992399121383
1.1626851998987111081
1.1626710904895121157
1.1625358798239493474
1.1623239996127641138
1.1620881288419830923
1.1618553234917512462
1.1616230082447485117
1.16138288640773224
1.1611483621037412828
1.1609599051709682538
1.1608588946412057297
1.1608603777162618265
1.1609408255275295296
1.1610577394426226938
1.1611759852607113075
1.1612759024460068691
1.1613497257685285735
1.1613802657237577431
1.1613511642317750905
1.1612512626070063959
1.1610863084533675771
1.160882495461270203
1.1606768887108376287
1.1604975754370721042
1.1603616412418331638
1.1501692503649627586
1.1501838222076248286
1.1502152924261963562
1.1502460450418576787
1.1502636807592085955
1.1502623366475097644
1.1502432656878502915
1.1502121965559604089
1.1501787006133279423
1.1501516626615628791
1.1501418064556050425
1.1501495832775487926
1.1501833438412543131
1.1502262681774793052
1.1625592912168072335
1.1626529897573283368
1.1626106145792980406
1.1624525565007746142
1.1622417773180251377
1.1620395052973009342
1.1618685928627927595
1.1617096757629954418
1.1615347785315732754
1.1613432721238399203
1.1611678432959733342
1.1610490163354092452
1.161001484215005819
1.1610048796557803641
1.1610261414029627858
1.161047265165613851
1.1610682047652416404
1.1610952717667946121
1.1611212645354398454
1.1611249375784356008
1.1610788319800089408
1.1609735553418323306
1.1608206671857057568
1.1606441606203241612
1.1604678621392061633
1.1603181319273918604
1.1500950501260938097
1.1500837841802482586
1.150082016511864369
1.1500846619038265217
1.1500902477946883806
1.1501003862852965387
1.1501163534261913401
1.1501404450598764484
1.1501731893816677932
1.1502148602864632476
1.1502601694586378489
1.1503117084936387293
1.1503559466801753786
1.1626304850796762569
1.1625878431564693472
1.162441792538185803
1.1622606185469472884
1.1621001435893751896
1.1619736604876607089
1.1618586365347920442
1.161726375788341592
1.1615715862416353676
1.1614159816293732064
1.1612870103361951912
1.1611912203438541358
1.1611142187965504124
1.1610387933674493066
1.1609658414319135034
1.1609127449131577681
1.1608969156341486517
1.160915150493383674
1.1609430239458065071
1.1609447925897096177
1.1608949821835405913
1.1607914142249191602
1.1606507008845909912
1.1604988514854233106
1.1603661997221903501
1.1499435766119034952
1.1499339068761209592
1.1499418991559988701
1.1499647842578963886
1.1500025746212463318
1.1500543112443304405
1.1501188429971194171
1.1501904834127050226
1.1502651313551819356
1.1503326268326421467
1.1503952436071367416
1.1504356619506956871
1.1624401520149123535
1.1623001682170861493
1.1621475322640320016
1.1620280986411528623
1.1619472071135723557
1.1618779543731259096
1.1617927351098165101
1.1616834362823968974
1.1615618963265477159
1.1614414846114440305
1.1613223567078130305
1.161192438256916537
1.1610491294904206061
1.1609079149539538456
1.1607982806231851303
1.1607458933148993019
1.1607552367534776927
1.1608005352052073178
1.1608411575944199701
1.1608384577048724839
1.1607780853952549549
1.1606681819517867815
1.1605381236477152473
1.160419322520157781
1.1622157093342782019
1.162080972763757325
1.1619823519041394544
1.1619251358393800633
1.1618864695039607948
1.1618385420750034775
1.1617701704223819537
1.161685958595208179
1.1615905182339991697
1.1614782378952668296
1.1613353471856613375
1.1611588712372356014
1.1609642018625243587
1.1607883120204280925
1.1606686613933296925
1.1606196094449863221
1.1606286325834047624
1.1606605715869995343
1.1606748038497833875
1.1606497181927606377
1.1605869574609004591
1.1605071665849502338
1.1604362794313571872
1.1618845215052493458
1.1618189584189329011
1.1617927970527914816
1.1617749195852671296
1.1617453376933510878
1.1616986831924147605
1.1616363630151624875
1.1615498774543944194
1.1614234190894756615
1.1612467665209629253
1.1610298814839015158
1.1608111408359018668
1.1606381660687379309
1.1605417546670517837
1.1605215255020266962
1.1605443342157897302
1.1605704825737830355
1.1605710716543859995
1.1605406693103237359
1.1604935788399595165
1.1604514689019402862
1.1616508922102317669
1.1616215960561533382
1.1615738328752747144
1.161509250184029618
1.1614146536576497315
1.1612702138434178867
1.1610750617701053322
1.1608591093654774262
1.1606703312250190585
1.1605499898529023639
1.1605039326483286288
1.1605066317329792991
1.1605204961822015441
1.160517764848650879
1.1604915552184140726
1.1604546208765296189
1.1604242531057769039
1.1613495932635948815
1.1612592920908026972
1.1611112153354636867
1.1609207691089842296
1.1607315577604151446
1.1605886132725400373
1.1605068676683933937
1.1604739120667320051
1.1604591360584348703
1.160439840727985894
1.160413726274572177
1.1603907547676766132
1.1603817635010356124
1.1612458427941900752
1.1611532202979193418
1.1609996894262553102
1.1608194500490882639
1.1606564706920288188
1.1605356768314252225
1.1604549542180004895
1.1603944461434261282
1.160338972355007936
1.1602904309726640442
1.1602596945687981833
1.1602501527145760996
1.1663794683105641603
1.1665978814159181365
1.1668874110457023718
1.1671386818528379781
1.1672515636642102344
1.167196684059844225
1.1670144559887358771
1.1667686846739317996
1.1664957128550355048
1.1662014254277313086
1.16588765170511377
1.165579482006597889
1.1653335921018899146
1.165207833423915762
1.1652373998589278248
1.1654242603901885378
1.165726720042029152
1.1660657511576326684
1.1663551753254686183
1.166533931666314583
1.1662838631405794132
1.166344911442493304
1.1665449998388492947
1.1668442594480301633
1.1671260083853192135
1.1672851475823864398
1.1672831350281003271
1.1671580653761925994
1.1669737184954360742
1.1667566331031267168
1.1664942661849393435
1.166169210558315017
1.1658074602947487985
1.1654844138018563005
1.1652889331228346581
1.1652783332404399452
1.1654567308863270636
1.165767035872419477
1.1661119620035131916
1.1663973976337049798
1.1665675389193588263
1.1666226792705760573
1.1661954905770977042
1.166236067799855336
1.1662046748638335014
1.1662401002504729775
1.1664227899507650932
1.1667222402044326035
1.1670147156106474018
1.1671838897379878119
1.1671911426567709302
1.1670863867945890924
1.1669366922282082832
1.1667690490067079701
1.1665527833611948338
1.1662519749841373518
1.1658846017458988076
1.1655346553221344053
1.1653107756630942671
1.1652858389057503263
1.1654629849106634687
1.1657729001751844233
1.1661098307411841279
1.1663818347920493768
1.1665435626506746036
1.1666016365082261252
1.1666021985510932613
1.1666073316300573648
1.1660312484768731167
1.1662144390103785785
1.1662114998903998497
1.1661172762392990609
1.1660738067245008942
1.1661679220393901257
1.166367247301865584
1.1665421556325847874
1.1665699777028861739
1.166429663173320197
1.1661988528790117048
1.165970953803544985
1.1657898137563011964
1.1656196086805812318
1.1654065478710127213
1.1651523929844977978
1.1649290036313380003
1.1648368478913080359
1.1649368655815011131
1.1652102168856419695
1.1655682075434259382
1.1659028946120186809
1.1661392446023932656
1.1662623928496360648
1.1663017491846352502
1.1663047293673114435
1.1663072873836752841
1.1663348945574951721
1.1656935636061829253
1.1659258167074575407
1.1659443039049712798
1.1657364379150747524
1.1654121012964226978
1.1651178650672009418
1.1649494389575902886
1.1648825546511056839
1.1647990974465756153
1.1645939017865771792
1.1642821749205052306
1.1639782906926421369
1.1638060317161991186
1.1638022564295049666
1.1638987452883144957
1.1639852935489818364
1.1640145965738295519
1.1640254594415506695
1.1641079040385282628
1.1643247990496461419
1.1646593424543913997
1.1650240531627555907
1.1653202033328069476
1.1654850386482318303
1.1655192151544555568
1.1654575313587647312
1.1653360890261523775
1.165171618853567681
1.1649814890273895163
1.1647957367705179532
1.1641289700275858632
1.1643230406714912828
1.1644310977941383367
1.1643435360251914723
1.1640533783170048387
1.1636773207371537975
1.1633748642249563954
1.1632540489253242466
1.1632882592912652253
1.1633407424024784227
1.1632772959530692791
1.1630871629101100506
1.1628715253038817146
1.162753840580625031
1.1627678612677658787
1.1628483329348913156
1.1628877757697553275
1.1628478754315572097
1.1627869998669329021
1.1628111266445906313
1.1629886501591200076
1.1632911574926694254
1.1636124033245738296
1.1638435794113322075
1.1639277534057228536
1.1638836088225004151
1.1637632887603468479
1.1636083489678492597
1.1634305309250299043
1.1632384815407654788
1.163065550628582745
1.1629690573571620504
1.1632107369547788345
1.1634187394611450461
1.1635313946701164589
1.1634294416247350501
1.1631038862401110734
1.1626805295133315621
1.1623299765558294805
1.1621674962855852442
1.1621729419149211537
1.1622008475606218081
1.1621149137754229752
1.1619040469606127797
1.1616818087076501431
1.161572816735606084
1.1616168691904542598
1.1617301493518665811
1.1617907291817104465
1.1617495628338485592
1.1616725242109138261
1.1616783763321487655
1.1618417742991595798
1.1621308638908518507
1.1624300861283245467
1.162625251963367301
1.1626693528209541828
1.1625953279559391174
1.1624687499832067061
1.1623305460863708749
1.1621812432592240061
1.1620123360400171908
1.1618534309056447462
1.1617694111764749199
1.1618245113900975696
1.1594875068142622698
1.1596562688304097311
1.1597893668607703876
1.1598093070915223013
1.15968313459623662
1.1595297581261965192
1.162532697065888021
1.1627732248825295436
1.1629087659179779823
1.1628165588483259096
1.1624900899952119726
1.1620541693573123165
1.1616944832134803445
1.161533798849887722
1.1615522006773244534
1.1615971501543587152
1.1615270030720459271
1.1613275578762307649
1.1611140621603388556
1.1610209024714448489
1.1610886550274392981
1.16122763621340086
1.1613084296133466822
1.1612761559493927077
1.1612037870625213642
1.1612216295339914396
1.1614087181891634692
1.1617300025584489376
1.162061432917663728
1.1622804420501737788
1.1623436597417551308
1.1622878289211933112
1.1621871427560805934
1.1620812144386329923
1.1619624774337637962
1.1618149083942184152
1.1616661890452646411
1.1615929756450085186
1.161667223777953728
1.1618839744759776877
1.1586586281738939785
1.1588767090454692443
1.1590244307935650969
1.1591287780691523768
1.1591068827412671638
1.1589339310315167619
1.1587437808738170197
1.1623336000334330009
1.1626150414040676839
1.1627818188931866583
1.162714451882685962
1.1624111942913333273
1.1619957144033030705
1.1616601510792852192
1.1615283071946576055
1.1615773296699520856
1.1616521865574360728
1.1616098678301163272
1.1614344935155360705
1.1612438377372409359
1.1611787226530769779
1.161278452447726206
1.1614498163642896778
1.1615600549174380784
1.161552662278346304
1.1615047631589574539
1.1615521719181756133
1.1617745703501229926
1.1621330433795720172
1.162499453410722916
1.1627467620212466048
1.1628345506664854447
1.1628026600164371729
1.1627288594569471503
1.1626525641850431469
1.162562299072705585
1.1624389924376439254
1.1623075789519885515
1.1622571549085436438
1.1623576740490484394
1.1626060890554870131
1.1628936006775580925
1.1507781347254797399
1.1505394495796907872
1.1502189650892582495
1.1498417255659010294
1.1494482817988274093
1.1490689890949015162
1.1487469076324507977
1.1484987968133337777
1.1483507820813785294
1.1482917063466424601
1.1483346743542475199
1.1596796234377975132
1.1594621451399256262
1.1592667091031045867
1.1591593128017716463
1.1591545437858123968
1.159234420583690639
1.1593579210410174252
1.1594853680811081365
1.1596003949885989037
1.1596903168149099717
1.1597410390028075611
1.1597434044538041942
1.1596911618141587663
1.1596077444894508091
1.1595293103209365349
1.1594824786073358869
1.1594612325134614483
1.1594311476785694737
1.1593416057263496999
1.1591695447105614392
1.1589432555880554432
1.1587305534879301927
1.1585969552210046984
1.1585718347076154888
1.158639230053553959
1.1587405862080544239
1.1588059424921954843
1.1587869276756337378
1.1586737368937427561
1.1584933974687880998
1.1582895712852765424
1.158112532497383107
1.1579975907301152116
1.1579554836229968284
1.1579762114845471022
1.158024996608403967
1.1490156420346335775
1.1492012400599389554
1.1494320588802682259
1.1496971566611136062
1.1499788749142292321
1.1502530205144483322
1.150491535204947624
1.1506652966483121858
1.1507494193126650561
1.1507279182487359925
1.1505979538199948564
1.1503680274488619073
1.1500621514890658759
1.1497098840455637347
1.1493518490331120496
1.1490196489326185425
1.1487494557395550032
1.1485559546880823589
1.1484545887315487089
1.1484337110102158519
1.1484952381757760342
1.1596672152489924112
1.1595271553340393833
1.1594636939657019248
1.1595038717995389543
1.1596275744188355716
1.1597839341829025983
1.1599133921061943742
1.1599909195703916875
1.1600183427403905068
1.1600046493357829558
1.1599604935260132699
1.1598810278632540882
1.1597594258401986433
1.1596167408268416299
1.1594853400727114234
1.1594024822198916169
1.1593799942216400645
1.1593929349366194348
1.159391253791070886
1.1593367731754864458
1.1592278134552929103
1.1590904481333308418
1.1589745104369202355
1.1589105925395299934
1.1588954274664142741
1.1589029284878973325
1.1588885265863235752
1.1588165213956334032
1.1586790902967163408
1.1584945422438652773
1.1583041267928824158
1.1581525702776043207
1.1580721306799066639
1.1580719299613759787
1.1581300867395085685
1.1582031551431013483
1.14904944912792506
1.1491736938547909563
1.1493462754111916091
1.1495609541666425013
1.1498043715555024136
1.1500547973756878317
1.1502844625626196251
1.15046327880144994
1.1505643925145652151
1.1505686589082939619
1.1504702978428249516
1.1502758738808993577
1.1500080723045240649
1.1496957747391054472
1.1493794546512361432
1.1490899202829030212
1.1488616122416599463
1.1487082504703354235
1.1486415723386182997
1.1486494318674722592
1.1487276337912446511
1.1597085326949865269
1.1597561447538682344
1.1599039968993425376
1.1601048412396428589
1.1602810401338761181
1.1603796281668068424
1.1603869558103394599
1.1603219472271106838
1.1602205277517518844
1.1601077629597955632
1.159982651464581016
1.1598381946951212829
1.1596816014991153665
1.1595394611781264516
1.1594542834027954381
1.1594480526332437975
1.159506073292073669
1.1595836547104789727
1.1596305503231940648
1.1596125134073340668
1.1595239283439571221
1.1593871545714475868
1.1592434991009259448
1.1591201935531516565
1.1590261462491637801
1.1589473700747583429
1.1588549739618592138
1.1587279357848538908
1.1585708314252691764
1.1584096644738441917
1.1582835890169833615
1.1582231770506639101
1.1582363871809215894
1.1583023194146071511
1.1491664281954558913
1.1492744530033593975
1.1494296317504950622
1.1496235755806958334
1.1498396898178897541
1.150053656265091595
1.1502371299962954598
1.1503625570700746206
1.1504073472126725708
1.1503608418727560014
1.1502249547160596777
1.150018219501211858
1.1497646729912029961
1.1495028402638651777
1.1492597539642606108
1.149070064587979445
1.1489426983426032081
1.1488905603930708033
1.1488971845265441019
1.1489605886700202664
1.1598739280601060297
1.1600145721472685523
1.1602572982485621633
1.1605185376331792479
1.1607126281085600183
1.1607879384964743252
1.160737181324086098
1.1605985642341902775
1.1604248188516397278
1.1602503859551154264
1.1600835715336730303
1.1599156451566225989
1.1597444180063332109
1.1595911870201178751
1.1594925889745733016
1.1594766786071690756
1.1595433719515533255
1.1596634256931381834
1.1597788121618126667
1.1598357540039148095
1.1597976971125578682
1.1596616134019550604
1.1594593107967543499
1.1592463215214221517
1.1590573526802929738
1.1589127534161518529
1.1587940647644228154
1.1586790288881709809
1.1585561632532146437
1.1584424651014935126
1.1583638696452578376
1.1583436290420594528
1.1583834254027953747
1.1584567964115579652
1.149261544111150446
1.1492958820646366203
1.1493774550494852971
1.1495048342191171997
1.1496680368645613157
1.1498492199345842213
1.1500239777312555312
1.1501658180991618519
1.1502502626404804698
1.1502618788455041265
1.1501953889859828362
1.1500612249881387861
1.149876595713222649
1.1496725765102826511
1.1494733999569213267
1.1493095893300653287
1.1491915725822758887
1.1491311200054312724
1.1491165250204844472
1.1491481865552282127
1.1604030218651011364
1.1606486626060479317
1.1608756455393978158
1.1610117819109440074
1.16102470570062688
1.160920660919602998
1.1607396993344833991
1.1605302208488643689
1.1603314235760666673
1.1601589860291998679
1.1600071932853321943
1.1598669793193727706
1.1597476717450732053
1.1596679933792000128
1.1596520407606789593
1.1597065845610847745
1.159814724703915445
1.1599341859143341704
1.16000166449677522
1.1599701102671038377
1.159817733864417999
1.1595727144770759942
1.1592925807507845626
1.1590413418173224347
1.1588515158524548276
1.158727635938502587
1.1586425271642151191
1.1585773865819761763
1.1585286639498439953
1.1585113959535429107
1.1585339201636766226
1.1585879551690114742
1.1493646948941180774
1.149367066190154496
1.149417338816980827
1.1495136911091250465
1.14964572214343419
1.1497956875887151984
1.1499406305623876001
1.1500565351693510241
1.1501238892632947852
1.1501314406646390154
1.1500781497453831381
1.1499728584833852629
1.1498336874492343096