/*--------------------------------*- C++ -*----------------------------------*\
  =========                 |
  \\      /  F ield         | OpenFOAM: The Open Source CFD Toolbox
   \\    /   O peration     | Website:  https://openfoam.org
    \\  /    A nd           | Version:  13
     \\/     M anipulation  |
\*---------------------------------------------------------------------------*/
FoamFile
{
    format      ascii;
    class       volScalarField;
    location    "0.3";
    object      f22.air2;
}
// * * * * * * * * * * * * * * * * * * * * * * * * * * * * * * * * * * * * * //

dimensions      [];

internalField   uniform 0.0914487234344;

boundaryField
{
    boundary
    {
        type            empty;
    }
}

sources
{
    airSource
    {
        type            uniformGrowthSizeGroup;
        libs            1("libuniformGrowth.so");
    }
}


// ************************************************************************* //
