/*--------------------------------*- C++ -*----------------------------------*\
  =========                 |
  \\      /  F ield         | OpenFOAM: The Open Source CFD Toolbox
   \\    /   O peration     | Website:  https://openfoam.org
    \\  /    A nd           | Version:  12
     \\/     M anipulation  |
\*---------------------------------------------------------------------------*/
FoamFile
{
    format      ascii;
    class       volScalarField;
    location    "0.0061";
    object      alphat;
}
// * * * * * * * * * * * * * * * * * * * * * * * * * * * * * * * * * * * * * //

dimensions      [1 -1 -1 0 0 0 0];

internalField   nonuniform List<scalar> 
106891
(
8.2188949926207030257e-06
8.2127447923606065015e-06
8.2056006535312992818e-06
8.1997566822516865492e-06
8.1925739590220984608e-06
8.1861808465132755464e-06
8.1779898656786939002e-06
8.1704740321723032178e-06
8.1611650755385472969e-06
8.1529245472377940255e-06
8.1423525879299958244e-06
1.1424831839296252585e-05
1.1432784914701699198e-05
1.1442625296151151125e-05
1.1456397501843376574e-05
1.1474906319769092127e-05
1.1497742988277473303e-05
1.152367533843518816e-05
1.1550942267749524981e-05
1.1577716649785443342e-05
1.1602365201859994617e-05
1.1623412935446238536e-05
1.1640253275213189067e-05
1.165314350628050293e-05
1.1663098110521300823e-05
1.1672148060664959697e-05
1.1681990238742455377e-05
1.1694354095198024687e-05
1.1710504442942622059e-05
1.1730911585010523308e-05
1.1755948322286852918e-05
1.1784958561183688156e-05
1.1816490573489161388e-05
1.1848775335963608349e-05
1.1880416523318973666e-05
1.1909820919497033064e-05
1.1935964653413575848e-05
1.1958562707417943506e-05
1.197685751732961567e-05
1.1990370696896546267e-05
1.199865305745441821e-05
1.2001974613794910512e-05
1.2000277572060966539e-05
1.1994610542396906745e-05
1.1986164547219085012e-05
1.1975986382924471376e-05
1.196404266163198292e-05
1.1950921421301784173e-05
1.1938015899024608064e-05
8.7270850424344419323e-06
8.7173319494301302289e-06
8.7088887358170226388e-06
8.6987860283333440713e-06
8.6901263801406256862e-06
8.6800263887943986547e-06
8.6716797276151942733e-06
8.662144290487890956e-06
8.6546287099069715035e-06
8.6460166045274147874e-06
8.6393570916180732912e-06
8.6314121797659865972e-06
8.6249327507338123858e-06
8.6167587025911855175e-06
8.6096090914542109995e-06
8.6003903698355429076e-06
8.5922189533385956114e-06
8.581966093205110603e-06
8.5731088552019967767e-06
8.5615021792172703736e-06
1.2025236669614638876e-05
1.2028313404594147469e-05
1.2037992818170259316e-05
1.2055129820500043531e-05
1.2078739897303773397e-05
1.2107040679860392508e-05
1.2137818412511174585e-05
1.2168670123998573279e-05
1.219750587190576824e-05
1.2222530173143311569e-05
1.2242622095166491632e-05
1.2258087118393674303e-05
1.2269983403729631092e-05
1.2280723742063618894e-05
1.2292200290372698535e-05
1.2306487898576973193e-05
1.2325004434981334616e-05
1.2348118209401439272e-05
1.2376011690415079621e-05
1.2407830222930015671e-05
1.2441779621761937176e-05
1.2476176371951032523e-05
1.2509359289135386415e-05
1.254007945484283486e-05
1.2567105806084569907e-05
1.2590358719625169235e-05
1.2609269563600522158e-05
1.2623449194399022466e-05
1.2632473172531906466e-05
1.2636568054060249252e-05
1.2635722354581871381e-05
1.2630538252278334052e-05
1.2622076671244533756e-05
1.2611519521042322274e-05
1.2599286297431919426e-05
1.2586184806328458229e-05
9.1816458799781735378e-06
9.1713016384209084404e-06
9.1624919145849050944e-06
9.1517341034405991364e-06
9.1426595111759159559e-06
9.1318483568524133414e-06
9.1230661496641516245e-06
9.1127682371267407956e-06
9.1047155369618176346e-06
9.0952318328776464429e-06
9.0879152884383956982e-06
9.0790010176878216755e-06
9.0717686051666033853e-06
9.0625247764486523188e-06
9.0545722200803098549e-06
9.0442753434288925728e-06
9.0354559706920905936e-06
9.0243192825850223644e-06
9.0149927109547163556e-06
9.0024849204139900292e-06
1.2659019030967384519e-05
1.2681353766050229516e-05
1.2709494754762728878e-05
1.2742187799180768742e-05
1.2777067948174289963e-05
1.2812031294323525632e-05
1.2844873237438221651e-05
1.2873880863771950498e-05
1.2898071265704965686e-05
1.2916935061643375701e-05
1.2930221027697266968e-05
1.2939035285845789614e-05
1.2944994712485203368e-05
1.2950427515762931568e-05
1.2957854799563615824e-05
1.2969272165290252993e-05
1.2985783392205448833e-05
1.3007152924056182498e-05
1.3033156702907269545e-05
1.306246742248676661e-05
1.3093542401628926249e-05
1.312504354730797886e-05
1.3155180066486381736e-05
1.3182956336804418544e-05
1.3208098614690940087e-05
1.3230258444045936092e-05
1.324949275644480022e-05
1.3265071608763963348e-05
1.327722149483208192e-05
1.3285579022040684515e-05
1.3289842542902055106e-05
1.328987649168475411e-05
1.3285973010453466361e-05
1.3278676083105868296e-05
1.3268587851316191025e-05
1.3257171745747179823e-05
9.6489104027140922882e-06
9.639670796660197545e-06
9.6281698183993904183e-06
9.6186220847310213781e-06
9.6070377468861133607e-06
9.5977458059984659822e-06
9.5865745712536660572e-06
9.5778546499125131954e-06
9.5673639943155186266e-06
9.5592073172032752688e-06
9.549118171603580149e-06
9.5409521269559825426e-06
9.5305623932403050693e-06
9.5218214638949492566e-06
9.5105137252243158834e-06
9.5011081015645271588e-06
9.4891220212469749721e-06
9.4794079102099535616e-06
9.4660896687646743354e-06
1.3375702597713400477e-05
1.3411247156843010369e-05
1.3448336425839207156e-05
1.3485254916497055682e-05
1.3520320015821457038e-05
1.3552235278556619964e-05
1.3579420505101439087e-05
1.3600425413938109333e-05
1.3614632469894542174e-05
1.3621903561333324059e-05
1.3623431387246799474e-05
1.3621512065120109251e-05
1.3619686769480016098e-05
1.3621382564294961013e-05
1.362881768127908628e-05
1.3643832686080870377e-05
1.3666485043156780286e-05
1.3696098496485247054e-05
1.3731606772496409967e-05
1.3771017242719931021e-05
1.3812687914386063116e-05
1.3854998549593426245e-05
1.3896410677137909808e-05
1.3935187350854342909e-05
1.3969543170466127674e-05
1.3998503968132934081e-05
1.4020797904026046789e-05
1.4036135632203999247e-05
1.4044550626798259528e-05
1.4046993655551158302e-05
1.4043870210291864317e-05
1.4036412227007465298e-05
1.4025982144176876224e-05
1.4013931417781687452e-05
1.0163047933752030643e-05
1.0151240561251401461e-05
1.014153760807790952e-05
1.0129274387147162758e-05
1.0119237814664978233e-05
1.010679303408579881e-05
1.0096830477130135556e-05
1.0084579035164211152e-05
1.0074938232896228274e-05
1.0063156317105957359e-05
1.0053885709602162642e-05
1.0042441971437495563e-05
1.0033198567823881333e-05
1.0021565357304968618e-05
1.0012044580165310718e-05
9.9998048761642564851e-06
9.9899492324058115033e-06
9.9772263707021578087e-06
9.9671710161919282892e-06
9.9530543584860057702e-06
1.4011734052903454973e-05
1.403978168495228174e-05
1.4075642457080666893e-05
1.4117203445959017289e-05
1.4161402021675292018e-05
1.4204887022927231591e-05
1.424474226115852905e-05
1.4278454316032571431e-05
1.430374961415182529e-05
1.4319947666540853203e-05
1.4327857838006670616e-05
1.4330191245043139321e-05
1.4330639514388322718e-05
1.4333117490604588146e-05
1.43414863000518652e-05
1.435673883657875979e-05
1.4379382207701923776e-05
1.4408297489141663159e-05
1.4441697114110817803e-05
1.4478484228416427145e-05
1.4517048360118354401e-05
1.4556354786880612061e-05
1.459552008463359829e-05
1.4633058135130468477e-05
1.4667399616431159933e-05
1.4696723220944379258e-05
1.4720224993349968214e-05
1.4737630445257544123e-05
1.4749098049222845021e-05
1.4754713207466019424e-05
1.475519208207900071e-05
1.4751032389610033507e-05
1.4743237552211740018e-05
1.0679566189115184894e-05
1.0669384011004331294e-05
1.0656379590839446097e-05
1.0645861854511075024e-05
1.06324905339869032e-05
1.0621698239395700286e-05
1.060815868027221221e-05
1.0597288169058624761e-05
1.0583895091042541897e-05
1.0573174460263544077e-05
1.0560105153750836549e-05
1.0549669100742685383e-05
1.0536793129363728253e-05
1.0526563438000791843e-05
1.0513472503406747871e-05
1.0503207221420423446e-05
1.0489796093357548745e-05
1.0479410988826839296e-05
1.0464490947655505051e-05
1.4761725971290942189e-05
1.4804804789481547988e-05
1.485145672623582325e-05
1.489871022331565667e-05
1.4943780208008158793e-05
1.4983955079699121747e-05
1.5017338326303393325e-05
1.5042679563171752521e-05
1.5059311483229318297e-05
1.5068258602115975511e-05
1.507162289667378748e-05
1.5073209939324282863e-05
1.5076835627646228508e-05
1.5085990994598804231e-05
1.5102295044981986936e-05
1.5125615849904347295e-05
1.5154919088850012118e-05
1.5188072287518467447e-05
1.5223885077674571977e-05
1.5261793254054153806e-05
1.5301060271771922629e-05
1.5340737777602539069e-05
1.5379388811397503082e-05
1.5415058595461362601e-05
1.54458046849231245e-05
1.547026945970576161e-05
1.548841445727374585e-05
1.5500484471191104365e-05
1.5506909228133030487e-05
1.5508269157255936147e-05
1.5504900957485800886e-05
1.5498141643405988265e-05
1.1235271424695107765e-05
1.1224618676783683832e-05
1.1210929547814947577e-05
1.119993666135014311e-05
1.1185656007126533682e-05
1.1173911842707346458e-05
1.1158892214685822174e-05
1.1146531583863112841e-05
1.1131245239442769248e-05
1.1118893758285092635e-05
1.1104066607847112367e-05
1.1092393020356156573e-05
1.1078237704548982864e-05
1.1067317932902873744e-05
1.1053396349842942742e-05
1.104277075588080952e-05
1.1028735116824411107e-05
1.1017979400206726046e-05
1.1002226915392045598e-05
1.560230057240333555e-05
1.5652793645511291117e-05
1.5701241268553385155e-05
1.574490107454456944e-05
1.5782471905956158031e-05
1.5812547196391802193e-05
1.5835123324209808923e-05
1.5850429100800311457e-05
1.585944622466370379e-05
1.5864127227600348212e-05
1.5867164325793609275e-05
1.5872084213008131785e-05
1.588162474180201863e-05
1.5897808371619284046e-05
1.5920647744492280362e-05
1.5949171840578898774e-05
1.5982084499386441459e-05
1.6017673775411663331e-05
1.6055298487607536453e-05
1.6094594784843700464e-05
1.6134633943810066373e-05
1.6173558802725987584e-05
1.6209891279955028622e-05
1.6242274008088057607e-05
1.62694265791984848e-05
1.6290930313248703603e-05
1.6306886939735366736e-05
1.6318337127564822535e-05
1.6324211639697369739e-05
1.6325697306528640459e-05
1.1809656170186692646e-05
1.1795323273249967467e-05
1.1783834815853891717e-05
1.1768653347258918425e-05
1.1755899657673938685e-05
1.1739349668076019253e-05
1.1725487192323295459e-05
1.1708339795918907747e-05
1.1694443423175799012e-05
1.167791095790799589e-05
1.1665029788468213738e-05
1.1649616975179607917e-05
1.163802841049611454e-05
1.162335850428877788e-05
1.1612382684048436158e-05
1.1597808889822820195e-05
1.158667722760653577e-05
1.1570339328417192883e-05
1.6457802335873943078e-05
1.6504134493841272023e-05
1.6547512575084332239e-05
1.6586205087809480631e-05
1.6618622624056576212e-05
1.6643797465286598906e-05
1.6662128193787359675e-05
1.6674252298136629943e-05
1.6681158172716798187e-05
1.6685223231763854341e-05
1.6689010648153964635e-05
1.6695418543941369007e-05
1.670733107361237397e-05
1.6726113097459873044e-05
1.6751782759576041795e-05
1.6784106276423263482e-05
1.6821001670740077984e-05
1.6861220368344686301e-05
1.6903799497055263843e-05
1.6947380183218520468e-05
1.6990168456349311629e-05
1.7030939193134042163e-05
1.7068450975796569129e-05
1.7102019841597047465e-05
1.7129652420199988994e-05
1.7152092523339397366e-05
1.7167913167558540723e-05
1.7177879772891539652e-05
1.2441233302550757221e-05
1.242682475367824435e-05
1.241493477610261833e-05
1.2399395420132766629e-05
1.2385887359185761801e-05
1.2368479201969288258e-05
1.2353499177325253294e-05
1.2335175869357610214e-05
1.2320062113817923069e-05
1.2302385767431962114e-05
1.2288499352901430608e-05
1.2272310206818865899e-05
1.2260068373253127418e-05
1.2244920284245161573e-05
1.2233583281344518668e-05
1.2218771373402500776e-05
1.2207417932256949604e-05
1.2191646512604315271e-05
1.7309125752583801614e-05
1.7350230392156065448e-05
1.7388357209175782554e-05
1.7423098167746733992e-05
1.7454036962697980689e-05
1.7481138094993720126e-05
1.7504280156544563274e-05
1.7522967855084237165e-05
1.7537856095046556234e-05
1.7550365465203387973e-05
1.756274985543532211e-05
1.7578644273059879842e-05
1.7600515968244723691e-05
1.7629843378413994742e-05
1.7666563014966618178e-05
1.7708465594300537739e-05
1.7753035360051960866e-05
1.7798119692282975677e-05
1.7841355708276257074e-05
1.7881325502930277418e-05
1.791798009740267557e-05
1.7951055683008332504e-05
1.7980890652081465563e-05
1.8005565111571566182e-05
1.8025421051141744669e-05
1.8038471168693547805e-05
1.8045694322924537542e-05
1.3021548041101601456e-05
1.3004355366767987449e-05
1.2988604646650741271e-05
1.2969533334193707208e-05
1.2951739079340463204e-05
1.2930997212967458159e-05
1.2912264690006860593e-05
1.2891080520613089835e-05
1.2873209650576706521e-05
1.2852929786070508352e-05
1.2836643567492759949e-05
1.2818221316174840491e-05
1.2802862600034994027e-05
1.2785839171759691513e-05
1.2771056584862004737e-05
1.2754158413708788301e-05
1.2739626290139376136e-05
1.7951493981296908837e-05
1.8007405982078889738e-05
1.8059684060905038881e-05
1.8104547381817950787e-05
1.8140837202411989285e-05
1.8168587356827504894e-05
1.818924168238039875e-05
1.8203869307208050819e-05
1.8214253657571352694e-05
1.8221802773016309164e-05
1.8229019674890054899e-05
1.8238246166970444907e-05
1.825277887269438531e-05
1.8275806986337800271e-05
1.8308318560394708983e-05
1.8349542248107733459e-05
1.8396846669621387158e-05
1.8445868416650459959e-05
1.8492859772874279225e-05
1.8534768903687569189e-05
1.857058252833047399e-05
1.8600480201386068838e-05
1.862584896591648636e-05
1.8646544140747123433e-05
1.8663390941061448817e-05
1.8674282679665690429e-05
1.8679580726544948408e-05
1.3336012209085627847e-05
1.331909078956463177e-05
1.3294385147061123323e-05
1.3275702270794032173e-05
1.3249467948564344315e-05
1.3229869346638853991e-05
1.3203064548214741905e-05
1.3183860934790676511e-05
1.3157797514707967633e-05
1.3139689812817471976e-05
1.3114899815604529388e-05
1.3098152512988018103e-05
1.3074521747515434941e-05
1.3058769166117045106e-05
1.3031807685275932979e-05
1.3026254755486414174e-05
1.3919756028695146662e-05
1.3972051703238801726e-05
1.4048850851621534972e-05
1.4115420691880189394e-05
1.4168756321761340352e-05
1.4207743799253872395e-05
1.4233357578164592078e-05
1.4247888488716157199e-05
1.4254544436494194916e-05
1.425710903311928203e-05
1.4259222487977824719e-05
1.4264330127805110399e-05
1.4275898115342723952e-05
1.4296609585332220707e-05
1.4326844397455494294e-05
1.4365543240064645639e-05
1.44093422338666346e-05
1.4454388301149032761e-05
1.4496926241849113963e-05
1.4534266990411194494e-05
1.4565315188732044571e-05
1.4590312297892166164e-05
1.4609490696489594122e-05
1.4623792295760174977e-05
1.4632988906900955603e-05
1.4638050585444249596e-05
1.463852008348715725e-05
1.4635929807953841414e-05
1.0355145436412362147e-05
1.0336418793753549022e-05
1.0322184176522261267e-05
1.0302645215642402973e-05
1.0287911067916624981e-05
1.0267993801111074449e-05
1.0253484176473855161e-05
1.0233800705940797459e-05
1.0219962289310164283e-05
1.0201045044575850012e-05
1.0188150321557383067e-05
1.017017765629888309e-05
1.0158164739738477725e-05
1.0138074542149811913e-05
1.0136524548114407852e-05
1.3353770814078127943e-05
1.339812239646459929e-05
1.3438789673516920596e-05
1.3472719940262752693e-05
1.3497982852084815347e-05
1.3514278407530776741e-05
1.3522738948963546112e-05
1.3525724362718139957e-05
1.3525719313383723728e-05
1.3525819772656926031e-05
1.3529485445034881928e-05
1.3539615131663029304e-05
1.3557664018697111017e-05
1.3584601011652760742e-05
1.3619186573763753811e-05
1.3659419303436793998e-05
1.3702395070297103153e-05
1.374507331766429702e-05
1.3784911730166402933e-05
1.3820473060427774685e-05
1.3850914636886713864e-05
1.3875386508130542956e-05
1.3893700889231000924e-05
1.3905405466826758384e-05
1.3911295975230704265e-05
1.391176638727582832e-05
1.3908718015682935713e-05
9.8570718771828494062e-06
9.8446907937722135838e-06
9.8278681255678913917e-06
9.8150901742779737542e-06
9.7980047324844594898e-06
9.7853973766392101898e-06
9.768448976368533166e-06
9.7562426010942626198e-06
9.7398449503396586358e-06
9.728336174716525317e-06
9.7126209049048357441e-06
9.7018213143872694313e-06
9.6848771213653097765e-06
9.6780196597694953157e-06
1.2897914788229459176e-05
1.2929652665433504456e-05
1.2956514482316576207e-05
1.2977454046940312669e-05
1.2992162376725165858e-05
1.3001566864210932625e-05
1.3007352808166810525e-05
1.301187293632324383e-05
1.3017365281497521561e-05
1.3025821429612795718e-05
1.3039166276594498211e-05
1.3058300741592337784e-05
1.3083241150331282983e-05
1.3113353000478329951e-05
1.3147060954097766563e-05
1.3182334722513798687e-05
1.3217341062896426556e-05
1.325041875633815511e-05
1.328024869416396118e-05
1.3305915280705136612e-05
1.3326617826666141959e-05
1.3341895000753737111e-05
1.3351726526209110708e-05
1.3356856215217716329e-05
1.3357718668301145183e-05
1.3355753168754912652e-05
9.4825646089642640053e-06
9.4668877451447738748e-06
9.455125689487701052e-06
9.4392567218721241913e-06
9.4275742163175914237e-06
9.4117609640713681326e-06
9.4003836115659168753e-06
9.3849542481602044069e-06
9.3740909081238787915e-06
9.3591350411553867638e-06
9.3487452492076951092e-06
9.3326715411279117374e-06
9.3252221803507602408e-06
1.2426009552121051216e-05
1.2449811638495320173e-05
1.2469464368114884057e-05
1.2484216123491290103e-05
1.2494613175560369703e-05
1.2502096632306731569e-05
1.2508576756809203546e-05
1.25159547996845366e-05
1.2526105715558457184e-05
1.2540334308876895482e-05
1.2559356526655909741e-05
1.2582885100646662221e-05
1.2610897307642420607e-05
1.2642158847896418529e-05
1.2675333086843539317e-05
1.2709215706762454399e-05
1.2742373714544639123e-05
1.2773355308977219844e-05
1.2801023158189004671e-05
1.2824089960328802695e-05
1.2841667285213481978e-05
1.2853674801970366693e-05
1.2860663152864872008e-05
1.2863007864972736942e-05
1.2862012739032803465e-05
9.1060292498161063407e-06
9.0950308218518661715e-06
9.080018031887665295e-06
9.0690609624027851003e-06
9.0540899262333011856e-06
9.043401241535381835e-06
9.0286890614758305774e-06
9.0183515877459138942e-06
9.0039587857422147309e-06
8.9938769138655439892e-06
8.9780927239118847859e-06
8.97064386850422561e-06
1.200843067823792286e-05
1.2027055534523387869e-05
1.2041402824542121944e-05
1.2051701293510366664e-05
1.2059165311673490022e-05
1.2065589069649462715e-05
1.2073092719840326171e-05
1.2083463946955830823e-05
1.209762305514568575e-05
1.2116127275116992054e-05
1.2139389624759685035e-05
1.2166606963397989086e-05
1.2197342782401813437e-05
1.2230517710814947465e-05
1.2264633954576486803e-05
1.2298219287937854811e-05
1.2329925045994477245e-05
1.2357924562483876713e-05
1.2380838500915043352e-05
1.2397746005866789804e-05
1.2408234362590729225e-05
1.2412904756877088302e-05
1.241228101138838619e-05
1.2408017069818029287e-05
1.1580481089620969838e-05
1.1593367711708867592e-05
1.1602739142134562829e-05
1.1609794275320280824e-05
1.1616223729361495716e-05
1.1623682448436875085e-05
1.1633647014704583564e-05
1.1647025534554870236e-05
1.1664258298970263104e-05
1.1685243131800071979e-05
1.1709837206126034019e-05
1.1736990913074775214e-05
1.1766088219150624934e-05
1.1795895351008719968e-05
1.1825085549929409089e-05
1.1852391509278748191e-05
1.1876847733239083289e-05
1.1897206795115629709e-05
1.1912842814487290626e-05
1.1923299100589660675e-05
1.1928883200148581738e-05
1.1929630350049818532e-05
1.1926676015295215982e-05
1.1219086294437098138e-05
1.1222263770108104885e-05
1.1225474988875082272e-05
1.122989659879563201e-05
1.1236317387140500707e-05
1.1245428845687322627e-05
1.1257496623069681516e-05
1.1272537014389733283e-05
1.1290293227756360001e-05
1.1310592224668156877e-05
1.1332621379704143017e-05
1.1356016607956413687e-05
1.1379902168275166609e-05
1.1403455276632300919e-05
1.1425892231065233007e-05
1.1446517582778067577e-05
1.1464216885446150483e-05
1.1477945317779091375e-05
1.1487398560109281841e-05
1.1491723477599886472e-05
1.1491762376904731693e-05
1.0799657714293819469e-05
1.0800725724394431395e-05
1.0805838818511414716e-05
1.0815510075087353932e-05
1.0829696027222673034e-05
1.0847860006430894888e-05
1.0869011881144978836e-05
1.0892063246168342877e-05
1.0916134205502976492e-05
1.0940092536212693051e-05
1.0963108815163812373e-05
1.0984285607877133115e-05
1.1002871821160341105e-05
1.101732389349775607e-05
1.1027404217067849056e-05
1.1032184762572058533e-05
1.103241506848780506e-05
1.0444621277612067614e-05
1.0462411295640638103e-05
1.0483410627160188311e-05
1.0506715649898568169e-05
1.0531003451260913649e-05
1.0555400050450802532e-05
1.0579145198008237306e-05
1.060129709466768842e-05
1.0620531048109640976e-05
1.0635567357511602326e-05
1.0645631479211510619e-05
1.0649746177408128404e-05
1.0648899837182924344e-05
1.0073375185847584432e-05
1.0097187724798495007e-05
1.0121429379296737814e-05
1.0144649173755966533e-05
1.0165955417732714953e-05
1.0184612281887902972e-05
1.0200180238659342169e-05
1.0212055011072831691e-05
1.0219482866502475663e-05
1.0222036428750019013e-05
1.0219812213834805298e-05
1.0213543101055532421e-05
6.0453400854614940344e-06
6.0679546476958533274e-06
6.0579244790273214911e-06
6.0251491512042834034e-06
5.9061876247603580634e-06
5.6562878068695229193e-06
5.459955670304670709e-06
5.339498773465124397e-06
5.2851868557012434232e-06
5.2730490373712825584e-06
5.276179295344282839e-06
5.3073229957289943257e-06
5.4395540973909897861e-06
5.629218147008928686e-06
5.7423257728656142609e-06
5.7885729808943183188e-06
5.7944852110181366628e-06
5.7861004380390521008e-06
5.754320438405108681e-06
5.6586047187130330581e-06
8.0678486620072215789e-06
8.2576642802167885162e-06
8.3282836342887536188e-06
8.3279284463001101079e-06
8.3011123450309635204e-06
8.2095985020737138877e-06
7.9151223989127770728e-06
7.5594548750810298187e-06
7.3243088558056392413e-06
7.2059270034544142504e-06
7.1723252089222197116e-06
7.1741633662778278135e-06
7.2080955037067574726e-06
7.3626910428647801364e-06
7.6138140841117910983e-06
7.762133644905271803e-06
7.8178070973992216041e-06
7.8208116614521533806e-06
7.8050327641219452933e-06
7.7462641935085296542e-06
7.5770502538934254855e-06
7.4151386720736859882e-06
1.3049197845868765327e-05
1.3253823098602711999e-05
1.3337256084138064379e-05
1.3340974833929073506e-05
1.3315355055456878285e-05
1.3253045537679014973e-05
1.3096969782928686074e-05
1.273998182460552535e-05
1.240403754786655292e-05
1.218403618421662583e-05
1.2083044006111713422e-05
1.2066260633588796972e-05
1.2077896133113064781e-05
1.2130712492396647487e-05
1.2310057630785417154e-05
1.2530458554332790704e-05
1.2647890112848861886e-05
1.267640089189821855e-05
1.2663751536765102147e-05
1.2631757407594169145e-05
1.2536735970060034737e-05
1.2311680260848784795e-05
1.2112672559876035535e-05
1.1984928208130919168e-05
1.1922288626160334237e-05
1.1900758900225802929e-05
2.899042192618726162e-05
2.9113060472183579738e-05
2.9132678255233876148e-05
2.9110104005929059824e-05
2.9032202103480505857e-05
2.8825018309793306887e-05
2.8375894606179105748e-05
2.7972724844662237234e-05
2.7707459813296488705e-05
2.7591085317436201622e-05
2.7568253497597304075e-05
2.7596646620123437585e-05
2.7756046997420596756e-05
2.8162061395569027355e-05
2.8503323730104217893e-05
2.8680287480267970711e-05
2.8720872264728090814e-05
2.8695225692079065184e-05
2.8617893347546112374e-05
2.8386514105491334858e-05
2.8011218183417415289e-05
2.7732107388110527747e-05
2.757324140707153329e-05
2.7508799155141166039e-05
2.7490800306578863502e-05
2.7498338392134134589e-05
2.75937062497128069e-05
2.7756833317519114722e-05
6.4428796592820204042e-05
6.4384302865813251631e-05
6.4292414901019533601e-05
6.4086438495598199e-05
6.3713775889244744083e-05
6.3347999588926783205e-05
6.3048346601879003246e-05
6.2838503120834812948e-05
6.2726601500466143456e-05
6.2683660834142462554e-05
6.2687746323934217152e-05
6.2830750356990849631e-05
6.3117211898424451584e-05
6.3325868692713582027e-05
6.3421212545394046794e-05
6.3419301243510697147e-05
6.3367358848107199418e-05
6.3253817362042454985e-05
6.2969679819077970353e-05
6.2591691301123696914e-05
6.2277792806462799972e-05
6.2046337641064462274e-05
6.1894477912283031389e-05
6.1807368409536045384e-05
6.1758774659231903555e-05
6.1737636446028862857e-05
6.176130721876258963e-05
6.1765415254440238137e-05
6.1747415482717773463e-05
6.1718145753368936e-05
0.00010129874313785334225
0.00010097677411701817167
0.00010063639603577176666
0.00010030824214770858466
0.00010001282947660585431
9.9763991683895984872e-05
9.9568829225104725413e-05
9.942211634309407848e-05
9.930807309455047787e-05
9.9208157125769497403e-05
9.9107814717598830207e-05
9.8992537579195666818e-05
9.8850737336935543963e-05
9.8677823671538747582e-05
9.8472045378081868457e-05
9.8237936445142554857e-05
9.7987056678914527573e-05
9.7735461284070211619e-05
9.7499834939030074034e-05
9.7292926649678447386e-05
9.7117657208944938095e-05
9.6964881279027172948e-05
9.6820446177821493862e-05
9.6673877460811693347e-05
9.6520854063822015168e-05
9.6363795221189040854e-05
9.6205881479662040266e-05
9.6048022652372747553e-05
9.5888704969500094524e-05
9.5727577329323603004e-05
9.5563597903587947429e-05
9.5395545047521985364e-05
0.00012352532571091619901
0.00012322868630817803326
0.00012295735674292730829
0.00012272136035470010613
0.00012251661520415091833
0.00012233061191320476107
0.00012214888321705638609
0.0001219580589726362228
0.00012174793591529544366
0.00012151578229428161809
0.00012126861269715671411
0.00012102036302343874643
0.00012078266698300029391
0.00012055963022224259269
0.00012034818138624683642
0.00012014157253127256812
0.00011993454325978038959
0.00011972549665083787008
0.00011951694468290319131
0.00011931256919678048724
0.00011911090846052614189
0.00011890447840256426618
0.00011868624099221935283
0.00011845843762354140534
0.0001182323742317532275
0.00011802203863903138956
0.00011783455557359760854
0.00011766752015944150357
0.00011751072375423821364
0.00011735513658120057679
0.00011719206561666392944
0.00011701525265397425663
0.00011681657941518555036
0.00016095984826807100787
0.00016004887727528912525
0.00015923832417284231977
0.00015849867300007455958
0.00015774894693725504367
0.00015693176706843632215
0.00013568676334025110415
0.00013542030152824559687
0.00013518215546373687596
0.0001349815533291422176
0.00013481151932363317656
0.00013465530848066163271
0.00013449563769290975423
0.00013431825764623276905
0.0001341140845038951842
0.0001338825207072373547
0.00013363418668419410596
0.00013338685001179626031
0.00013315445026639455587
0.00013294143208212962407
0.00013274255802123432015
0.00013254812334331588604
0.00013235018906788384484
0.00013214591256282022112
0.00013193856958531989141
0.00013173259338251200909
0.00013152592589206932544
0.00013130955581439429192
0.00013107617743143268178
0.00013083009272355530751
0.00013058761443473181465
0.00013036620433368390284
0.00013017425389686687327
0.00013000713002535343034
0.00012985209453226541419
0.00012969635257316746552
0.00012953041914383816918
0.00012934532469914146436
0.00012913366966034849352
0.00012889140293077518086
0.00015412522499940516725
0.00015325372684540166063
0.00015246822620041742386
0.00015177465934150251195
0.00015112366834103165675
0.0001504354002080522776
0.0001496812100252204738
0.00013538844335580043536
0.00013517553508002845488
0.00013499927975801440192
0.00013485391124805852828
0.00013471753283872240866
0.00013456424301479656702
0.00013437513371640510897
0.00013414100393334114935
0.00013386374466348494364
0.00013355632653528015869
0.00013324157853318474467
0.00013294197395337124042
0.00013266770792064907147
0.00013241441288359498559
0.00013216928158130353613
0.00013192036791145693962
0.00013166174088415319335
0.0001313951447872564553
0.00013112736216872036767
0.00013086414907474792023
0.00013060366353908391753
0.00013033876676622576014
0.00013006797863624695042
0.00012980235300649096996
0.00012956186355137021098
0.0001293591134825074413
0.0001291903487763720697
0.00012903825790340457203
0.00012888175388327672947
0.00012870542779385839727
0.00012850180881461404736
0.00012826796999851271556
0.00012800610816835004393
0.00012772615669810025879
0.00012744755798130467613
7.8039202141318255354e-08
7.8130255939323616408e-08
7.8373860386466636355e-08
7.8551763325004597768e-08
7.8781817322795370488e-08
7.8916763994613659976e-08
7.9262056199021987976e-08
7.9497012613248509623e-08
7.9828671460357725673e-08
8.0102062956760359465e-08
8.0505355012462947563e-08
6.8706089927972012855e-07
6.8620530304532056066e-07
6.8559638930399215922e-07
6.8502302385998607594e-07
6.843866710912680087e-07
6.8363009954691893309e-07
6.8286297078950838738e-07
6.8221238931298518837e-07
6.8167198043504911631e-07
6.8120430838239227823e-07
6.8081047222565062061e-07
6.8039103341181043355e-07
6.7993520092279521793e-07
6.7939988774474728271e-07
6.7850989528042608132e-07
6.7655058827709541563e-07
6.7392032707812720604e-07
6.7141657142846136105e-07
6.6902575072168508544e-07
6.6672975604491450793e-07
6.6455734219836909052e-07
6.625379040467610584e-07
6.6070605834395100187e-07
6.591304083547330021e-07
6.578479954459647631e-07
6.5680998208393683978e-07
6.5592075262785357812e-07
6.5509655375898204537e-07
6.5433174208375110018e-07
6.5361264640016293222e-07
6.528376791820663564e-07
6.5183885474366503431e-07
6.5008623877491717593e-07
6.4593851826288863602e-07
6.3399211289239088613e-07
6.0675384122371412048e-07
8.0054814153410052735e-08
8.0073634410242132621e-08
8.0130747152607795375e-08
8.0277538471907403924e-08
8.0495145138457160683e-08
8.0723691026853425491e-08
8.0981684523599142418e-08
8.1229225604733628494e-08
8.1385566761979906286e-08
8.1590448721548551722e-08
8.1791089360931392473e-08
8.1864354745478446271e-08
8.2089434656626744213e-08
8.2253914860469148598e-08
8.2500113929535786565e-08
8.2644063818662424697e-08
8.2970706050097142822e-08
8.320783912046285324e-08
8.3479141728879220847e-08
8.3743908791407349745e-08
8.4076516376215530332e-08
6.9915151289868246468e-07
6.9838390151879783368e-07
6.977385906304005853e-07