/*--------------------------------*- C++ -*----------------------------------*\
  =========                 |
  \\      /  F ield         | OpenFOAM: The Open Source CFD Toolbox
   \\    /   O peration     | Website:  https://openfoam.org
    \\  /    A nd           | Version:  12
     \\/     M anipulation  |
\*---------------------------------------------------------------------------*/
FoamFile
{
    format      ascii;
    class       volScalarField;
    location    "0.0061";
    object      k;
}
// * * * * * * * * * * * * * * * * * * * * * * * * * * * * * * * * * * * * * //

dimensions      [0 2 -2 0 0 0 0];

internalField   nonuniform List<scalar> 
106891
(
0.015456592352627925024
0.015451006501738221918
0.015441076835481085117
0.015436046374319032509
0.01542673985364032864
0.015421681389237794357
0.0154116751346102792
0.015405990470094905326
0.015395089077809622283
0.015389283762384835946
0.015375145493024369378
0.018547833996774648613
0.018602433041212642489
0.01866528846571679362
0.018742598524548841066
0.018836490545335458219
0.018944975846799615854
0.019063142642332317478
0.019183970095224728986
0.019300351063680627056
0.019406866385305778649
0.019499727706002480121
0.019578412768146636475
0.019645293823601708838
0.019704593724011256611
0.019763340597193722326
0.019827118096921659413
0.019901366623734824401
0.01998974491469098988
0.020093085430712767647
0.020211993806713957067
0.020344008233842497679
0.020484466299168523074
0.020627939372282248082
0.020770131812962482759
0.020905373745141862807
0.021029173601473893224
0.021139336789965393337
0.021232474166109828462
0.021307137964661475998
0.021362795111563529643
0.021401658830596390765
0.021424384722766056516
0.021435105453220717336
0.021438325304495416124
0.021438051262687576187
0.021434150921640051507
0.021427754743432971679
0.021421951196522522054
0.016340261214866782374
0.016326318056950027413
0.016317853537333979613
0.016303638423245003786
0.016295057737458467501
0.016280922258457973528
0.016272782305326204816
0.016259189978134955257
0.016251939484330010094
0.016239300712240983121
0.016233004746914917599
0.016221456792878882758
0.016215607041440118635
0.016204287883554057553
0.016198083845557657151
0.016185779392471615068
0.016179025325235456279
0.01616581062465508381
0.016158826786866607728
0.016141808427688735667
0.019548682918321617918
0.01959244647039375814
0.019659257583123757041
0.019751537110846938833
0.019865465105187298661
0.01999392068888234536
0.020127868695244143654
0.020258257852777138835
0.020378367862133078131
0.020483854908099910497
0.020573347296442973109
0.020649847187878583171
0.020717825094108296285
0.020785258366318969114
0.020857736259095899234
0.020941323756663389466
0.021039973602515121137
0.021154277712819188201
0.021284508202406567795
0.021427876992524179378
0.021578798128937669298
0.021732208629497245383
0.021882763991504728535
0.022025799155526069872
0.022155927486447308389
0.022271504937527317192
0.022369566949210755585
0.022448738251154589513
0.022508443332232872663
0.022550859667536438807
0.022577250021544023606
0.022590665296944107548
0.022595347082987569942
0.022595592965502918348
0.022592406594996280317
0.022587312636681657063
0.017176381817910254396
0.017160570816416139545
0.017151171523913762845
0.017135040947497768432
0.017125519640789215597
0.017109414070228552013
0.017100420203455514445
0.017084898812809966306
0.017076775371110842344
0.017062262782063873645
0.017055094093163674501
0.017041640515432138203
0.017034752606461207869
0.017021244628226114837
0.017013776485732611671
0.016998970329122710388
0.016991002243085182033
0.016975331515746833883
0.016967242249561056283
0.016947391253813993278
0.020579946403658563175
0.020688594494496802267
0.020818476669088939457
0.020965065454147797236
0.021119544897026765878
0.021273052263063630535
0.021416044794963957909
0.02154150052533810103
0.021646641267014661569
0.021732063772908611493
0.021800065242470984678
0.021856857802537068419
0.021908695732401919226
0.021962587938740743554
0.022025397756210037675
0.022102359380425259244
0.022196301148830446109
0.022306164837940539725
0.022431451534286380584
0.022568219694192117458
0.022711897162519173454
0.022858394544783659785
0.023001440388052542957
0.023136818113057018576
0.023262444312510510702
0.023376028638551579752
0.02347720074171323959
0.023563486586558886338
0.023636409553073518125
0.023695838559824388553
0.023741944008776483949
0.023775294155376429373
0.023797575274245297977
0.023810734094496931179
0.023816149943023098845
0.02381761054849942244
0.018037988017184772294
0.018027587068153886479
0.018009313023291010497
0.017998704199072273341
0.017980515659455464927
0.017970612603886979008
0.017953068690122440942
0.017943950420580629529
0.017927447982037346408
0.017919131668839165944
0.017903387992912536686
0.017895028957468112063
0.017879059663128263336
0.017870189327451529299
0.017852862239103792913
0.017843658005594426053
0.01782542295118995368
0.017816259928595569451
0.01779360223939689678
0.021868810959075959954
0.022025660336095539277
0.022189315301759885563
0.022352478202476322444
0.022507455074421832408
0.022647798615748442053
0.022767189535304432901
0.022861823283174008414
0.022932618839772857255
0.022982801902010876333
0.023019013697585695433
0.023049350952517009411
0.023083987871785248414
0.023131807749782254402
0.023198141235861780007
0.023288371311964522342
0.023403166195401670091
0.023541534946673350198
0.023701237897849780634
0.023876256840764508577
0.024060932314839127144
0.024248974294190737272
0.02443390451560727844
0.024608638007255084074
0.024766468195527840263
0.024904114718677677898
0.025017467409639962406
0.025105853953996424416
0.025169705983754370182
0.025212903830952829165
0.025237688275619250822
0.025249186984727101796
0.025252426265506146275
0.025251594762160677055
0.01897977381689440815
0.018959927505113619017
0.018948555969968639001
0.018928214681842494421
0.018916665047698101587
0.018896368997057173128
0.018885368615733758718
0.018865566762833900494
0.018855120201325910323
0.018836160994304178284
0.018826153843027420426
0.018807780249717933468
0.018797595613248490459
0.018778813213823537104
0.018768381771363137206
0.018748476868483385932
0.018738166425058464665
0.018717530606440584834
0.018707361798804108405
0.018681939842587893391
0.0228059736809076187
0.02293815947532339139
0.023097117395775659116
0.023274272396717223671
0.023457868822441982348
0.023635462948627099927
0.023796856956305970088
0.023934912038243383314
0.024045098688667717463
0.024128801679539724906
0.024191181727544249641
0.02424131355553004602
0.024289136358617954142
0.024344227015617975196
0.02441677805875686405
0.02450934727566377036
0.024624895123586055395
0.024761947478732140165
0.024916479528507631813
0.025085416935034115377
0.025262249708522303837
0.025441520364532083792
0.025618568958177302675
0.025787794090538506547
0.025944558342905203741
0.026083833537391021284
0.026203707879445137935
0.026303198858128932353
0.026382232808635056737
0.02644065680552161457
0.026481247231390680347
0.026506415709434617139
0.026520140571469667801
0.01992822302767551651
0.019915879593186185115
0.019893528991580582133
0.019881114600678758547
0.019858698204476533944
0.019846451463739644971
0.019824243374758191566
0.019812052579917232425
0.019790187689883713407
0.019777857999258505184
0.01975624861225757159
0.01974397730352333083
0.019722379113790745875
0.019710552262754945513
0.019688233648521773905
0.019676829107638085792
0.019653893915258104086
0.019642767212782866193
0.019614669270168503395
0.02409758669699970865
0.024280771819491404895
0.024474911484721886129
0.024668768365078468097
0.024852275541015645538
0.025016374941234823664
0.025155926357391413667
0.025269365476998480874
0.025357706302389808328
0.025426795508804601181
0.025483860424440611669
0.02553928019003865596
0.025601954613303126718
0.025680197368491430171
0.025778342521475663962
0.025897562538208823701
0.026037463180202728014
0.02619328152865157272
0.026361309307053742979
0.026537764093848920099
0.026717428284669518523
0.026895378186295611916
0.027067040151223322603
0.027227655431768461175
0.02737271566234358508
0.027498607534701402511
0.027604753666943693952
0.027690557465464834402
0.027756269993392816003
0.027803595171374508727
0.02783416859613345451
0.027853230574591752305
0.020945248127134104971
0.020931929572962342662
0.0209077197705472978
0.020894427266300842627
0.020870039239456825847
0.020856361401272571071
0.020831481533885896212
0.020817124479674584125
0.020791873205060512619
0.020777065825386690362
0.020752124458315507338
0.020737824989757701333
0.020713338376120372236
0.020700170415099476001
0.020675512740485867125
0.020663251924952257682
0.020638385615046654642
0.020626326013650431862
0.020595639724444694124
0.025625822315012172087
0.025832464160342759329
0.026031310194348927789
0.026213002477567550613
0.026373152286302548042
0.026507377402987159637
0.02661683261450707369
0.026704435051412157842
0.026775759726723181303
0.026838255782303015867
0.026899632114221389001
0.02696866752712299628
0.027051241087471838975
0.027152467912547450374
0.027273159567952464516
0.027412449271674240586
0.027568126326446635438
0.027734911948516426106
0.02790934093527317264
0.028088054439000868095
0.028266633360358561777
0.0284393753295333028
0.028603395269233177628
0.028756206283943049062
0.028894148568304609676
0.029015080133515846333
0.029117937579611983395
0.029205220716633718131
0.029272517686312313906
0.029324004118083210613
0.022003624653978641479
0.021977660258207260685
0.021963452072852069491
0.021937208488937206402
0.021921983270536939126
0.021894359939472526205
0.021877930076765788464
0.021849558125538647013
0.021832743767453241523
0.021804841140977190145
0.021788846827571539677
0.021761802412610019297
0.021747602563359690053
0.021721092832968004471
0.021708151329756678743
0.021681795754593280456
0.021668885791405814722
0.02163659343930356832
0.027137838174191512841
0.02733086509532964628
0.027515431596406816211
0.027685430052796583533
0.027834471877289983233
0.027958563844777850615
0.028059608356882422692
0.028141587443734950719
0.028209738215099301045
0.028272686051072266206
0.028337805141168407458
0.028412218824378946552
0.028502898622247977573
0.02861295744031695093
0.028742872421421313683
0.028893540849672626203
0.02905963218370973683
0.029238009507324989877
0.029425648732659438755
0.029617739922070417113
0.029808140535644175179
0.029993108407931175913
0.030168762373528730525
0.030332579555852706016
0.030476914250440610005
0.030603980468761362438
0.030708606998688114248
0.030793375378820198734
0.023192399899266975816
0.023166990417429471349
0.023152405290353530315
0.023126388078236581602
0.023110453486205068813
0.02308225790381326914
0.023064732865275598683
0.023035320709011465612
0.02301738668406110716
0.022988485076257930001
0.022971689784550674424
0.022944234543747239058
0.022929601410896394142
0.0229028091940605312
0.022889609513076048658
0.022863105488630092871
0.022849921854058884846
0.022820106497708630977
0.028569686082648843017
0.028751507886957350379
0.028925840507466688001
0.029089262368369152301
0.029238160357675565398
0.029371508764076161013
0.029490082776930791331
0.029594952725104609059
0.029691022642351863614
0.02978402244318982886
0.029879864768792337854
0.02998708052868467866
0.030110103446228893287
0.030251906446454202015
0.030413119242980592855
0.030589497211729314852
0.030776685645530561103
0.030970804275414258455
0.031165164313764922438
0.031353963594231905321
0.031534412835409308951
0.031702494527909109989
0.031857482136255138583
0.031992534396395808094
0.032110250877078534704
0.032205054025396848139
0.032280816829978832561
0.02416291146465555581
0.024130266112357474928
0.024105239986349061981
0.024070439695465892238
0.024042728766943886193
0.024005783577481155933
0.023977067567098154371
0.023938949356642261895
0.023911954300857216765
0.023874085260831991173
0.023848965720415744168
0.023813780160688090975
0.023788291049425574347
0.02375545253316794711
0.023730079599391815104
0.023696706720497614368
0.023671623979930198761
0.029161791158145242836
0.029390440484210883509
0.02961105716100728355
0.02980992925352333317
0.029980614667023855469
0.030120484640353335781
0.030232720410240110365
0.030321411928144765408
0.030395083521707669943
0.030461887116969076778
0.030532537532890754312
0.030614380032888129785
0.03071493279088635675
0.03084010454714057603
0.030989671788767863408
0.031160941385770503376
0.031349049771917915364
0.031545561099449698217
0.031743417293392764411
0.031934636749894960983
0.032113958670845467458
0.032277115086913589492
0.032423609487150228947
0.032549716171134931986
0.032658211152914437547
0.032743783489102555595
0.032809873248802787216
0.024111818479525520126
0.024084271833199891871
0.02403061862066105045
0.024000588451533563794
0.023944649017838673388
0.023913440286993048467
0.023856166843643250575
0.023825685773223040376
0.023769109891303527582
0.023739683458388602388
0.023684245736109620778
0.023656085107148366875
0.023601494993298405972
0.023573929976693126093
0.02350516386549633685
0.023512740862646173967
0.023141802222759192548
0.02335276713523538189
0.023650274828697723933
0.023916433638980615778
0.024138353692436800152
0.024309746131639300287
0.024432577285371345072
0.024514974968189343074
0.024569630207151353651
0.024611625989296618405
0.024654779569341169626
0.024710647254355976032
0.024789210953488047956
0.024896960231654559348
0.025033109581335376975
0.02519412472374956205
0.025371105903446159596
0.025554982239582687414
0.025736453604566420644
0.025907503814008449317
0.026062723744205262832
0.026199569882181087538
0.026315541434518426034
0.02641213150703340673
0.026488210656787899988
0.026547724713896329179
0.026589376304066950074
0.026618765699835754412
0.0192171364341246452
0.019175537660520301092
0.019151700322942690619
0.019109017705427389089
0.01908468011286629587
0.019041257302997528777
0.0190176791088895146
0.018974279320123420972
0.018951643784828144101
0.01890896276996204689
0.018887303916978917528
0.018845543818823744242
0.018824638764261058393
0.018773052604842625779
0.018789380478564300658
0.022172414274287382402
0.022357156639865143066
0.022530752060691810329
0.022681247168677781678
0.022800791731297932741
0.022887964260903764097
0.022947119208285810671
0.022987381770554794758
0.023018300689168692819
0.023050970686249346031
0.023096840220604063221
0.023164676296867754701
0.023258045640402409682
0.023379364462626318899
0.023524778102789967171
0.023689354558645715765
0.023865862923544828994
0.024045969786332006823
0.024221435679296448445
0.024386204864712122953
0.024535442946270497044
0.02466454299844300993
0.024771959615575961378
0.02485550764526393494
0.024917363770510386062
0.024958219681960103209
0.024984416357585487872
0.01812943751165698239
0.018110385875847706538
0.018075631128779769824
0.018056205011503546898
0.018021132176950577924
0.018002480055147079135
0.017967480774739988392
0.017949287494381165747
0.017914755300085120904
0.017897142979337126584
0.017862971907728033422
0.017845840814011190018
0.017805500592551804645
0.017801704400615656759
0.021529781090871464438
0.021670466772113403803
0.021793935785067122812
0.021896122057324291649
0.021976190381248629502
0.022037833516425391761
0.022087338895543363188
0.022132985002076794451
0.022182317477017796797
0.022241853361096363545
0.022317915590945140714
0.022413405474795741745
0.022528311571469870206
0.022660807335394765605
0.022806368382278046497
0.022959086141175481105
0.023113292418522609489
0.023263156958707158911
0.023403578815770528787
0.023530879910370672281
0.023642047769400660606
0.023735401770467012827
0.023810370245953241253
0.023868430934079743616
0.023909814992149568819
0.023938985670559815438
0.017467717688233398016
0.017435196958232822978
0.017417484654510460157
0.017384833583579416272
0.017367599237046886518
0.017334890870021806702
0.01731803522363087669
0.017285545188417079931
0.017269058907927695157
0.017236699475059936992
0.01722044357608382148
0.017182943931297701284
0.017176988115481198194
0.020794406570865994754
0.020904255111221316937
0.020999298343651742055
0.021077686743513700252
0.021141828531180104772
0.021196600419419907996
0.021248001406542062902
0.021302061769129104762
0.021365211023617380892
0.021442390229931565515
0.021536626014938040075
0.021647303900469226645
0.021774560561362003852
0.021914250487111350957
0.022061693344151537405
0.02221250696289953086
0.022361354543243765897
0.022502933967558841344
0.022633557367518066655
0.022749419448464119897
0.022847806664738939258
0.022927968495387467118
0.022990623868688546405
0.023035765659178832759
0.023067451429691257503
0.016769028062737320606
0.016752332478436153529
0.016720987010766779485
0.016704548408794268888
0.016673092923519615416
0.016657004191701949014
0.016625569599822215966
0.016609683100413722562
0.01657839117005148466
0.016562642968346062006
0.016525926359213446992
0.016519996643702770239
0.020203242306829134745
0.020292822659713632971
0.020368334772989462461
0.020431154975130625534
0.020485080748150960583
0.020535415969887498011
0.020588934110818146034
0.020652075851200605433
0.020728816962417465769
0.020821800031101463102
0.020932805757898183957
0.021059059507112190546
0.021198720436035187881
0.021347487491184716224
0.02149951543605404039
0.021649191583642986292
0.021791767766043964455
0.021921356382394677903
0.022033936177449749833
0.022126797013047469487
0.022198284849894663745
0.022249750258424495775
0.022282243534039243571
0.022301422676008531704
0.019544388243721549231
0.019612831414317365847
0.019670428708611895074
0.019721034136949897736
0.019769830063363597744
0.019822229882575915366
0.019883715072124382578
0.019958153810621773877
0.020047557089590477969
0.020151652428218275875
0.020269667704686536447
0.020397413510154924904
0.020532050530190738141
0.020668661676890579676
0.020802210065013239382
0.020928137900708753544
0.021043334886546888329
0.021143994334125938012
0.021228557517908214908
0.021295813212270166964
0.021346883240245546204
0.02138175300285053218
0.021404517012615701527
0.019104627257489101982
0.019140277592095713416
0.019176861070572499141
0.019218491264248554334
0.019268253367621269306
0.019328938697226363819
0.019401527161072278788
0.019485761197660086963
0.019580203643448413492
0.019683695853766131761
0.01979294583125450202
0.01990632407113063565
0.020020498691772185829
0.020132314010496536044
0.020238875187969553038
0.020337999032250121678
0.020426498820670289935
0.02050166873447180349
0.020563327458942945447
0.020608952815649471402
0.020641702142014880378
0.018491688037081666779
0.018524906035460256964
0.018573466731855132333
0.018638545935745064186
0.018719365200195837301
0.018813685984987896932
0.018918051313949146158
0.019028707534121849787
0.01914234763351715593
0.019254448078185708304
0.019361499685411967531
0.019460282432295573224
0.019548939939500135227
0.019623461237955139996
0.019684583386795434512
0.019730021468026562315
0.019762601329257164368
0.018093474886974787036
0.018185095074090031064
0.018287553482414835304
0.018398000799890450174
0.018511611745592477379
0.018624560412472904863
0.018733286433198950705
0.018834193979383673928
0.018923417349305773211
0.018998183690487165792
0.019057732060935105023
0.019099853111159956209
0.019128155397132428489
0.017516764327354928527
0.017627436784877850012
0.017739794350978287801
0.01784854700188933524
0.017949639912374477924
0.01803936890291218953
0.018115729118434922146
0.018177388467900571639
0.01822360363744013681
0.018255056523885912489
0.018273491723120195013
0.01828150711214050067
0.011803473177713710157
0.011930572279934673063
0.011929498693747254273
0.011834237353455422104
0.011397077079495540608
0.010465909383490923715
0.0097552048836950736727
0.0093279257692460686852
0.0091365866422206225284
0.0090945757730244471129
0.0091097811552197840296
0.0092268130514467985859
0.0097057466122545711651
0.010415331831714223429
0.010861807370516856144
0.011060746775487403232
0.011104528155049151264
0.011091365406593651707
0.010987533316757664217
0.010641529695277615261
0.021768540868141533773
0.022853568541842228523
0.023315197320001417036
0.023391866030047479136
0.023318089162457145136
0.022871636182756949207
0.021305281763032722642
0.019450750801539511137
0.018261057529015425893
0.017670086203608735553
0.017501039645653405225
0.017512072275152536227
0.017688947794032874178
0.01847545671090854158
0.019792684787554783166
0.020615215741449855608
0.020957893227795731939
0.02101779814398397131
0.020973231296620348241
0.020695226973737702175
0.019832474802304256994
0.01901837749888153975
0.059192527398693899066
0.061036157767330290191
0.061825136300337729667
0.061940695091357640678
0.061849151917961989189
0.061467342345117602365
0.06024327409559086105
0.057194906874629594662
0.054353522432118515917
0.052521911967898571305
0.051685343116101456484
0.05154067137539879162
0.051627279879104891191
0.052073341200136992468
0.053638629558100385519
0.055630269452886918491
0.056763339282181281276
0.057126927150694679913
0.05713147268484639052
0.056965240044182283152
0.056229970274756985171
0.054332213677091373283
0.052670786763409208064
0.051632970133007126401
0.0511556568982562479
0.051033867466847696037
0.30398960074018954725
0.30644425367642380564
0.30680683201408487371
0.30647326935729635178
0.30524219554272125077
0.30157742348154537027
0.29310424022584746773
0.28572845969538468447
0.28116116874781776902
0.27945759064389291693
0.27941788327835170858
0.28018550407166642469
0.28345550848217349049
0.29178391875277198686
0.29894733545038082445
0.30284273347311985169
0.30401688853687530711
0.30391584448744052294
0.30281940451886446564
0.29854598201291659976
0.29129816324921942172
0.28608727799041860917
0.28333137633934191157
0.2824491544143279409
0.28245168741565412907
0.28293380122188738213
0.28521927744660519055
0.28896749921257230964
1.5587539441891460346
1.5583612881622548318
1.5559512448542980323
1.5482920548838152719
1.5327913918236244495
1.5177385715584565951
1.5058316572767920238
1.4980908548437239514
1.4948193226382993082
1.4945567712133343008
1.4962006684582858096
1.5041763739775309006
1.5189955284714600214
1.5302613709773111861
1.5363909884182089804
1.5381922591829011449
1.5378786023672266214
1.5347518119741643261
1.5233865897049125859
1.5074416797436949178
1.4946719916785422555
1.4860143182554070851
1.4812803432917833746
1.4795980739350460542
1.4795123563490963914
1.4803714974181303443
1.4830451085665370403
1.4845660966864242525
1.4849063720071566941
1.4846769869469076397
4.0034760769847661521
3.9837057903732038255
3.9617954071395029558
3.9396777141732570726
3.9191197002311395359
3.901745858269765943
3.8887079637614001548
3.8801421875684574125
3.8752185421668778886
3.8725509318916988555
3.8705781614800849333
3.8674630317755038789
3.8617001177368504017
3.8527201040935206144
3.8405533792848745023
3.8259140459524116906
3.8100147101722083853
3.7942383977421134666
3.7798191424778493364
3.7676308088182151046
3.7579834032488248496
3.7504972428218805724
3.7443016204657193491
3.7383844801854411166
3.7318376248404390161
3.7242174536231349435
3.7154731963604890055
3.7058595463416050819
3.6957476865035414626
3.6855944829530788986
3.6757041135815020638
3.6663311865453831473
6.1655365689146517383
6.1445243775168982836
6.1244731099154954279
6.1058241423037875606
6.0886598295936362746
6.0728104799223476817
6.0579033358275644616
6.0434538175561520745
6.0289809925942430269
6.014161182486936319
5.9989265601343682022
5.9834802083844502718
5.9680913765164920193
5.9529575214942882511
5.938169530504994853
5.9237311093442199805
5.9096622680219264012
5.8960111221074411603
5.8828510382694183534
5.8702631492888164289
5.8581883735996660434
5.8463908702781104409
5.8345506259077364319
5.8225162865609139118
5.8103685486352452116
5.7984174607049716599
5.7868830252432275074
5.7758603594486768174
5.7651928225075614876
5.7548116668889450764
5.7444943861659423234
5.7341820455020444669
5.7235676484362771888
10.163187239335439216
10.063384418356266181
9.9702455669633831548
9.8828002075360608103
9.7979203370179188681
9.7129441037238279932
7.7226528732801158483
7.7039415645252544707
7.6863728540580007476
7.6703039763660836314
7.6555970606041316984
7.6417659087509770544
7.6282484738205331709
7.6145304764250800744
7.6002511315541241288
7.5852912304197186444
7.5698566718975452972
7.5544008570230207766
7.5393579991428580911
7.5249549918031997109
7.5111261203042039014
7.4976314879415326686
7.4842624623673792428
7.4709361321465506123
7.457745488252810695
7.4448012775162402122
7.4320097920916836642
7.4190618716533514032
7.405668880403501575
7.3918520909783316242
7.3780026733236878655
7.3646309402600049765
7.3520653873330417127
7.3402646079975522042
7.3289287691127773527
7.3177118365011253331
7.3063721907230441133
7.2946253150302604595
7.2822729208254717292
7.2691095492162123293
9.6304136293822004689
9.5399922283936877676
9.4565205937905840727
9.3784593116058552198
9.3023053026674880073
9.2253812813350393185
9.1486156060289900438
7.9909646251698589481
7.9782623582629303982
7.9676942767070233486
7.9578759917234993537
7.9468912034585397208
7.9331602789399466857
7.9159291808352039155
7.8952951954761045883
7.87215435814558262
7.847990162791159463
7.8244201581484809083
7.8024562957962118048
7.782099283568946646
7.762579144864314884
7.7429690188769999537
7.7227487940457111293
7.7019376227163496296
7.6809639286262445523
7.6603086957098405207
7.6402356752038373955
7.6206940371851983329
7.6016165248238403152
7.5833905355970383511
7.5668637085648366991
7.5527998418517636736
7.5411169853846713451
7.5307770562032203543
7.52027845437491127
7.5083393227919348334
7.4943184034576031394
7.4781972790302777554
7.4603755041947046323
7.4417469745401634285
7.423684912627263266
7.4078954228983047159
1.3949959124205905885e-06
1.4003159172672606998e-06
1.4110500217728910906e-06
1.419378789663318644e-06
1.4295422592569280853e-06
1.4361788038913666373e-06
1.450451124129334171e-06
1.4607227709776181733e-06
1.4746066004631051478e-06
1.4864495884916238125e-06
1.5033196814045092645e-06
6.7218103455603939308e-05
6.7150324929544214338e-05
6.7136951482283291261e-05
6.713597934219105634e-05
6.7126123549702363812e-05
6.7092630318025463058e-05
6.7053376792436075022e-05
6.7031091667106999419e-05
6.7025083603820931246e-05
6.7029765168612551055e-05
6.7046377815632656025e-05
6.705570634214131243e-05
6.7055547843147827883e-05
6.7037539190859321558e-05
6.6947921060054921185e-05
6.6646660774323087458e-05
6.6212056768243449036e-05
6.580449266595719284e-05
6.5424301973054623449e-05
6.5070626406937102514e-05
6.4749592543582179939e-05
6.4463674010761966618e-05
6.4213408198126833331e-05
6.4006073900624630129e-05
6.3846735473137902067e-05
6.3729508312553845143e-05
6.3643396163957691148e-05
6.3578338657778340993e-05
6.3533581716918277236e-05
6.3500566841395014793e-05
6.3451532692542663675e-05
6.3349032323363921684e-05
6.309186593020283697e-05
6.2371059025467933822e-05
6.0176219874852585913e-05
5.5206473275206425784e-05
1.3740028833846889838e-06
1.3764664022272906649e-06
1.380251060295585774e-06
1.3871675408685761944e-06
1.3966210735717264834e-06
1.4065662200479427804e-06
1.4176604994320274214e-06
1.4285201616786780926e-06
1.4362478732130161073e-06
1.4457247303526860006e-06
1.4550848679776033971e-06
1.4598600671621999031e-06
1.4699780221941041739e-06
1.4778695928696447965e-06
1.4886393704262029566e-06
1.4956453453090291488e-06
1.5092483790355956475e-06
1.5196322706148224498e-06
1.5313230101610659521e-06
1.5428883082535131731e-06
1.5571509889205179005e-06
6.610624470642001069e-05
6.606340789366802759e-05
6.6050695666961664805e-05
6.6047046959590214568e-05
6.6053200166696381915e-05
6.6104974766747221101e-05
6.6315220342791177306e-05
6.6665679853435537449e-05
6.696400569562561641e-05
6.7177703800145167857e-05
6.7284231389531492574e-05
6.73133244732993278e-05
6.7309392724848899768e-05
6.7260226153804413322e-05
6.7047013205943185388e-05
6.6672766247485452983e-05
6.6389802527683282416e-05
6.6190728499645050159e-05
6.6054058263294201567e-05
6.5972316689835757341e-05
6.5927601527495437801e-05
6.5910458693227156669e-05
6.5911027785414417601e-05
6.5948101646736139326e-05
6.6090740753179552072e-05
6.6281116029314856696e-05
6.6404905805557401782e-05
6.6468067613327454397e-05
6.6489480489997988583e-05
6.6489849116009743218e-05
6.6483695259742336243e-05
6.6456228999117739065e-05
6.6334515954498179859e-05
6.5901003146404989251e-05
6.4479793252720092557e-05
6.019249374243887705e-05
1.4447381293487268998e-06
1.4465988228103405503e-06
1.4498162733292234173e-06
1.4549659909242371651e-06
1.4629411442065197252e-06
1.4720534178581383534e-06
1.4817140007784752677e-06
1.4918758256360272313e-06
1.4983420607736475117e-06
1.5060610394277117067e-06
1.5147162173051577431e-06
1.5192264716620347998e-06
1.5291395983711926717e-06
1.5365443881570715687e-06
1.5482113078361884846e-06
1.5566786331173330731e-06
1.5690318392670645274e-06
1.5798035839072026462e-06
1.5897895920804833229e-06
1.6003424647663139235e-06
1.6127122186416896007e-06
6.9069436589704627473e-05
6.9046142123003757373e-05
6.9048571064808254892e-05
6.9094414600522627767e-05
6.928493691242995872e-05
6.9538282349084309291e-05
6.9706985719729134209e-05
6.9777617291042493279e-05
6.9793374440585743165e-05
6.9787415015342419279e-05
6.973381272846921827e-05
6.9510317008461016243e-05
6.9053874022216327633e-05
6.8676535929173819516e-05
6.8390417731660407071e-05
6.8187101326890769189e-05
6.8039660838543816052e-05
6.7925113483721346252e-05
6.7840244263051626555e-05
6.7785254139597904714e-05
6.7751472941190058158e-05
6.7743675710195701127e-05
6.7755891099936275891e-05
6.7817334066438674173e-05
6.8002493764003198932e-05
6.8196646843514714003e-05
6.8321481625654788923e-05
6.8385547040427865787e-05
6.8406374607227448921e-05
6.8404530040024706379e-05
6.8391756739194964516e-05
6.8321563250323171239e-05
6.8040231615430399846e-05
6.7094076530203308664e-05
1.517551393383391521e-06
1.5205933470377056758e-06
1.524076338494863624e-06
1.5305551696022221222e-06
1.5379676558441011714e-06
1.5447562487300523157e-06
1.5529142920689077766e-06
1.5578347437117292481e-06