/*--------------------------------*- C++ -*----------------------------------*\
  =========                 |
  \\      /  F ield         | OpenFOAM: The Open Source CFD Toolbox
   \\    /   O peration     | Website:  https://openfoam.org
    \\  /    A nd           | Version:  12
     \\/     M anipulation  |
\*---------------------------------------------------------------------------*/
FoamFile
{
    format      ascii;
    class       volScalarField;
    location    "0.0061";
    object      pMean;
}
// * * * * * * * * * * * * * * * * * * * * * * * * * * * * * * * * * * * * * //

dimensions      [1 -1 -2 0 0 0 0];

internalField   nonuniform List<scalar> 
106891
(
98712.754348328599008
98713.440154995230841
98714.154867902063415
98714.899107388817356
98715.674518330124556
98716.48346028564265
98717.328910324358731
98718.214121954952134
98719.140914343690383
98720.110889587900601
98721.115756338142091
98713.689623557467712
98713.556869025283959
98713.428361662343377
98713.306413074402371
98713.192419849423459
98713.086583380310913
98712.98797178210225
98712.89408432826167
98712.800441415631212
98712.701766772224801
98712.5941915614967
98712.476760274978005
98712.35123890824616
98712.221208026443492
98712.091124096899875
98711.965364953779499
98711.847579551744275
98711.74016543138714
98711.64393042116717
98711.557914335178793
98711.479936224117409
98711.40736604045378
98711.338116623359383
98711.271330369534553
98711.206958766299067
98711.144471677544061
98711.081953744200291
98711.016341617767466
98710.944607308076229
98710.864809319973574
98710.776970930324751
98710.68290812606574
98710.585319948862889
98710.487333158962429
98710.392551825541887
98710.304882141164853
98710.227696589252446
98710.162326355857658
98711.214241345092887
98711.684588290620013
98712.180599347600946
98712.704030403110664
98713.256360439860146
98713.838570370062371
98714.451035373684135
98715.093531811464345
98715.765368070438853
98716.465704824615386
98717.193924810155295
98717.95002593958634
98718.734714581281878
98719.549652991059702
98720.397128167853225
98721.279863716728869
98722.200755798330647
98723.161051473391126
98724.161993415822508
98725.195404286962003
98713.514641310059233
98713.393102564717992
98713.278517862141598
98713.172555342229316
98713.075987908421666
98712.988118598281289
98712.905612316259067
98712.822428159895935
98712.731881143830833
98712.629261473761289
98712.513650594817591
98712.387787069645128
98712.256556679305504
98712.125634835319943
98712.000166352343513
98711.883616499631898
98711.777679222810548
98711.682438980729785
98711.5965243508399
98711.517784386611311
98711.443980810698122
98711.373678312200354
98711.306841946236091
98711.243914544727886
98711.184552341859671
98711.126926334269228
98711.068026511944481
98711.004467386752367
98710.933645557670388
98710.854779760193196
98710.769017167534912
98710.678978225958417
98710.588122429748182
98710.500259028529399
98710.419173525617225
98710.347670296556316
98714.528035611336236
98715.046717003366211
98715.589929656664026
98716.159401983619318
98716.756622491797316
98717.382604288388393
98718.037745267705759
98718.721874400318484
98719.434419281242299
98720.174673720583087
98720.942113689146936
98721.736786836394458
98722.559377726036473
98723.411374758768943
98724.294749079577741
98725.211778161828988
98726.164950100734131
98727.155065844286582
98728.183148460419034
98729.241069431009237
98713.492187828203896
98713.379729383828817
98713.274105764285196
98713.177429158255109
98713.090629019076005
98713.012679902923992
98712.93935232028889
98712.863701523092459
98712.778163554830826
98712.677600374270696
98712.561581615867908
98712.434354462558986
98712.302779921417823
98712.173885002717725
98712.052774860188947
98711.941696785070235
98711.840644326293841
98711.748415101406863
98711.663288224997814
98711.583657468960155
98711.508590561090386
98711.438016623258591
98711.372294706772664
98711.311587633230374
98711.254976866548532
98711.200348763610236
98711.144799354951829
98711.085531846532831
98711.020451358475839
98710.948621517862193
98710.870634860839345
98710.788533276674571
98710.705586266383762
98710.625630425725831
98710.551986753736855
98710.486673299368704
98718.429207374341786
98719.015898116253084
98719.627596119607915
98720.265753746018163
98720.931442615445121
98721.625224782445002
98722.347138979370357
98723.09682767947379
98723.873803145921556
98724.677706653732457
98725.508598802814959
98726.366987071451149
98727.253967783370172
98728.170984162163222
98729.119691741550923
98730.102013588533737
98731.118206716579152
98732.169127623099484
98733.246826607180992
98713.387567489669891
98713.292732799789519
98713.206734045263147
98713.129906940448564
98713.060285951374681
98712.993141819228185
98712.921329815333593
98712.837401780838263
98712.736923088668846
98712.620717498793965
98712.494506635921425
98712.366360747037106
98712.243706858644146
98712.130826090069604
98712.028380987670971
98711.934611609394778
98711.846967356395908
98711.763699770555831
98711.684478111841599
98711.609831217094325
98711.540432863039314
98711.476548466191161
98711.417553704450256
98711.361593861845904
98711.306190551506006
98711.249320619914215
98711.189731669830508
98711.126550957778818
98711.059232724815956
98710.987913509772625
98710.91379284991126
98710.839280722822878
98710.767541935230838
98710.70129338746483
98721.214842121742549
98721.819972012192011
98722.447244681301527
98723.098118226247607
98723.773954837917699
98724.475884314641007
98725.204678627269459
98725.96071026858408
98726.744058387746918
98727.554627270379569
98728.392242229514522
98729.256863008195069
98730.148654193195398
98731.068199917994207
98732.016336338114343
98732.994037100841524
98734.002608527502161
98735.041775285339099
98736.112252598220948
98737.206282921863021
98713.42287018969364
98713.339338023681194
98713.263954558336991
98713.196513661896461
98713.134177486776025
98713.071703334891936
98713.002232465296402
98712.919240654446185
98712.819528196123429
98712.705055849743076
98712.582362749250024
98712.460172728358884
98712.345953407449997
98712.243152754468611
98712.150826683311607
98712.065519426687388
98711.983837989711901
98711.904174968003645
98711.82730472132971
98711.75510689766088
98711.688824829092482
98711.628264891900471
98711.571541539698956
98711.515520180735621
98711.457332964302623
98711.395782634062925
98711.331369673556765
98711.265152869440499
98711.197812645608792
98711.129654061965994
98711.061203737321193
98710.993706443172414
98710.928943403894664
98725.207944630266866
98725.873759382069693
98726.561437500306056
98727.272268659464316
98728.007542078237748
98728.768435163132381
98729.555901538551552
98730.370532895234646
98731.212508342199726
98732.081639327385346
98732.97762865338882
98733.900196011469234
98734.849350672477158
98735.825336035864893
98736.828512601859984
98737.859703451744281
98738.918329217165592
98740.005184598063352
98741.112949425019906
98713.401583323226077
98713.335697690461529
98713.275936089281458
98713.219102118746378
98713.160376724539674
98713.094417020110996
98713.01640516781481
98712.923888247241848
98712.81849847434205
98712.705877078435151
98712.593904777619173
98712.489837414439535
98712.397308233630611
98712.31530498948996
98712.239809558348497
98712.166509064933052
98712.093211106752278
98712.020839136719587
98711.952259585363208
98711.889426988476771
98711.831518302875338
98711.775111505470704
98711.716042678788654
98711.6516978386353
98711.582200757009559
98711.509823875589063
98711.437320903889486
98711.366548247431638
98711.298155063544982
98711.231968994878116
98711.168069861101685
98711.107337622510386
98728.573499344682205
98729.276261540551786
98729.998758606554475
98730.742301069651148
98731.50849187572021
98732.299028274443117
98733.115395668981364
98733.958653932859306
98734.829364163786522
98735.727558020531433
98736.652798173381598
98737.604246425966267
98738.58111307809304
98739.582787069972255
98740.60895216393692
98741.660122557615978
98742.735645057458896
98743.83649625669932
98744.95592007774394
98713.428102733989363
98713.374535259281402
98713.321803508006269
98713.266957433850621
98713.206909232161706
98713.138598718433059
98713.059817080677021
98712.970817355628242
98712.875109344444354
98712.778693497501081
98712.687733666010899
98712.605861366624595
98712.533108827206888
98712.466661891710828
98712.402616051287623
98712.338419468229404
98712.27397837319586
98712.21064336746349
98712.14912029277184
98712.088369313074509
98712.025818445312325
98711.958681292293477
98711.885686941823224
98711.807952172093792
98711.728085087263025
98711.648898143015685
98711.572453940505511
98711.499714744888479
98711.430934777934453
98711.366350134281674
98732.637899118097266
98733.393595561254187
98734.168351492611691
98734.963860016345279
98735.78212385335064
98736.62514181638835
98737.494546969261137
98738.391295569512295
98739.315508723942912
98740.266626741620712
98741.243562461371766
98742.245040924884961
98743.269865114052664
98744.317051103687845
98745.386543733126018
98746.477324319843319
98747.590464752531261
98748.719946546611027
98713.47946193581447
98713.431015425230726
98713.381458781193942
98713.330361279469798
98713.276327370622312
98713.21715227853565
98713.15100154884567
98713.077954325985047
98713.000780671689427
98712.924095572103397
98712.852575860131765
98712.788896490310435
98712.732721434134874
98712.681138726184145
98712.629980928992154
98712.575663726762286
98712.516247473700787
98712.45126524483203
98712.381093255346059
98712.306275133640156
98712.227236847291351
98712.144774964661337
98712.060390759274014
98711.975869063069695
98711.892481544025941
98711.811127498338465
98711.73282860420295
98711.658757083583623
98735.936557528257254
98736.722363911700086
98737.525497705850285
98738.347872928759898
98739.191799103442463
98740.059569940262008
98740.953062355460133
98741.873421869298909
98742.820868037859327
98743.794772378314519
98744.793815683791763
98745.816464854520746
98746.861275152434246
98747.926947987099993
98749.013112038024701
98750.118420766244526
98751.243629086427973
98752.382821997816791
98713.565855231732712
98713.525277466731495
98713.486545273714
98713.449761511394172
98713.412946622876916
98713.372393950339756
98713.324840003871941
98713.269672433743835
98713.209837059024721
98713.150385549291968
98713.096030080414494
98713.048643353220541
98713.005974847561447
98712.962624308653176
98712.912287280196324
98712.850344479389605
98712.775523183154291
98712.69008002843475
98712.598578656630707
98712.505968592551653
98712.415772381587885
98712.329240729814046
98712.245492234913399
98712.162820066223503
98712.080470905464608
98711.999240916440613
98711.920677346977754
98739.978178160454263
98740.808497474150499
98741.656811354216188
98742.525177207688102
98743.415739843592746
98744.330364413079224
98745.270286307117203
98746.235929613219923
98747.226925646726158
98748.242239035025705
98749.280476485102554
98750.340219358826289
98751.420086336365785
98752.519495115950122
98753.636809581788839
98754.772399958004826
98755.920590768946568
98713.759134218737017
98713.726260517607443
98713.696443353765062
98713.670921714176075
98713.649342733144294
98713.629368272158899
98713.606932512586354
98713.577930536688655
98713.540352188414545
98713.495320430505672
98713.446988825584413
98713.400707245280501
98713.359796806122176
98713.322933770337841
98713.284372962472844
98713.236200484374422
98713.171926836439525
98713.089696693714359
98712.99329556923476
98712.890445929384441
98712.789251193142263
98712.694829392712563
98712.607966381343431
98712.526209337374894
98712.446187855588505
98712.365764637477696
98712.284786601463566
98743.986966349271825
98744.860957144628628
98745.753906362937414
98746.667428952991031
98747.602841228013858
98748.561027427946101
98749.542357518730569
98750.546764866870944
98751.573786741049844
98752.622696218182682
98753.692608228258905
98754.782319078542059
98755.891030133323511
98757.016736168123316
98758.159151539366576
98759.31275618262589
98713.93307615633239
98713.904796235699905
98713.88018401125737
98713.86074910282332
98713.84607687559037
98713.833531322772615
98713.81894580644439
98713.798145215856493
98713.769023234664928
98713.732446382637136
98713.691625200328417
98713.650502124684863
98713.61139934854873
98713.573291679480462
98713.531622084847186
98713.480070933510433
98713.413465517718578
98713.330566657416057
98713.2349766442494
98713.133542556985049
98713.033180795275257
98712.938216814189218
98712.849715796721284
98712.766319435831974
98712.686043705689372
98712.607489639995038
98712.5298876662564
98712.452556247371831
98747.500491831335239
98748.412966412011883
98749.344398935558274
98750.295688248763327
98751.267468210076913
98752.260129002694157
98753.273836272099288
98754.308476077814703
98755.363673131272662
98756.438814062057645
98757.532911830043304
98758.645253851645975
98759.773940476239659
98760.918479720363393
98762.073994936581585
98714.066561453175382
98714.044216937894817
98714.026358822651673
98714.011965098208748
98713.998572919226717
98713.983010477837524
98713.962468772457214
98713.93564008755493
98713.903013815783197
98713.86631227703765
98713.82749123906251
98713.787582831646432
98713.745799766300479
98713.699313102988526
98713.644227036988013
98713.577490896961535
98713.49879269079247
98713.410747553687543
98713.317660044369404
98713.223912824585568
98713.132293488743016
98713.043827912581037
98712.958759336557705
98712.877075269789202
98712.798398760452983
98712.721685897849966
98712.645366144279251
98750.501751560266712
98751.446894006803632
98752.410245307313744
98753.39237539334863
98754.393661535490537
98755.414287250328925
98756.45425987605995
98757.513376594346482
98758.591246846699505
98759.687080538918963
98760.800210079542012
98761.928952992413542
98763.072847013696446
98764.227693673135946
98714.215592239241232
98714.19577547069639
98714.178101599114598
98714.160285629695863
98714.139935689861886
98714.115491939694039
98714.086491869835299
98714.053383384103654
98714.016783376049716
98713.976907727701473
98713.933579618198564
98713.886388490893296
98713.834537904636818
98713.77663820523594
98713.711529563952354
98713.639305004864582
98713.561274882085854
98713.479123806260759
98713.394328238660819
98713.308038882285473
98713.221410174694029
98713.135840640214155
98713.052771832502913
98712.972784025943838
98712.895115150546189
98712.817913935316028
98753.317310938291484
98754.291198650753358
98755.282363993086619
98756.291159641375998
98757.317782793179504
98758.362260084482841
98759.424411256753956
98760.503896179216099
98761.600059004791547
98762.712438095899415
98763.839734761524596
98764.981681571851368
98766.134863666942692
98714.357976754414267
98714.334848951461026
98714.309664475964382
98714.281090066506295
98714.249220443511149
98714.214647539745783
98714.177530494504026
98714.137412806943757
98714.093577656865818
98714.045560957776615
98713.993489447064348
98713.937829666014295
98713.87882518277911
98713.816546156944241
98713.751282543336856
98713.683158047730103
98713.611800674538244
98713.536629044290748
98713.457434527284931
98713.374912312705419
98713.290731635730481
98713.20702108387195
98713.125173330699909
98713.045019609882729
98712.96515462550451
98755.957336944033159
98756.956489799398696
98757.971954111460946
98759.003850000095554
98760.052152580406982
98761.116666201138287
98762.197104645194486
98763.292981828009943
98764.404020262838458
98765.529333415222936
98766.668947001482593
98767.820245697032078
98714.485138588090194
98714.452255564669031
98714.415431268673274
98714.375676997529808
98714.334219947995734
98714.290964813364553
98714.244847941969056
98714.195009653296438
98714.141390179953305
98714.084770132481935
98714.026399228227092
98713.967398960026912
98713.908288816048298
98713.849085198162356
98713.789122218455304
98713.726844717035419
98713.660414539641351
98713.588640345566091
98713.511672718173941
98713.43078408841393
98713.347699483449105
98713.263801766748657
98713.179688373929821
98713.095295337188873
98714.582265817633015
98714.538540883557289
98714.491242363976198
98714.441640913777519
98714.390028561319923
98714.335895231604809
98714.278893317678012
98714.219396032072837
98714.158734434400685
98714.098557040575542
98714.040183067932958
98713.983972542569973
98713.929543988095247
98713.87578138387471
98713.820915401433012
98713.762602183254785
98713.698844504891895
98713.628632631633081
98713.552020216608071
98713.46980147541035
98713.383311658166349
98713.294148907021736
98713.204063622179092
98714.603669543124852
98714.545680982264457
98714.484903874283191
98714.421730626927456
98714.357017350732349
98714.292218119750032
98714.229047856337274
98714.168800489176647
98714.112012134020915
98714.058350367689854
98714.007071754764183
98713.95709078143409
98713.906815434180317
98713.85411272442434
98713.796469946435536
98713.731773251973209
98713.658651935984381
98713.576803028452559
98713.487575053150067
98713.39368078179541
98713.298459276746144
98714.428623038547812
98714.35947639074584
98714.294303199552814
98714.234019532828825
98714.178335665186751
98714.12626306815946
98714.07663391798269
98714.028434078747523
98713.980611334409332
98713.931398994463962
98713.878005718492204
98713.817127922913642
98713.746070381806931
98713.663732894245186
98713.571546795166796
98713.473244312190218
98713.373661699442891
98714.248762826420716
98714.197520132845966
98714.148181485143141
98714.100106541241985
98714.052698493906064
98714.004369006608613
98713.952125122203142
98713.892111494002165
98713.820872653377592
98713.736935084292782
98713.641759075107984
98713.539859989425167
98713.437215133206337
98714.264544958423357
98714.214077319818898
98714.164216315039084
98714.114746087012463
98714.064549229704426
98714.010968347298331
98713.949861264729407
98713.877260994559037
98713.791367300887941
98713.69383294317231
98713.589653664224898
98713.485281773391762
98725.147416156702093
98724.936593299804372
98724.725810404444928
98724.521303234403604
98724.32914036155853
98724.152793429122539
98723.991271115184645
98723.840162784370477
98723.694011029117974
98723.548619466251694
98723.402185780418222
98723.255291681707604
98723.109731594930054
98722.967424367292551
98722.830299076827941
98722.699491623905487
98722.574659685153165
98722.454214997167583
98722.335652182446211
98722.215723069180967
98725.377619353806949
98725.170117401939933
98724.956730944977608
98724.743111690899241
98724.536575746577
98724.343718969714246
98724.167636401078198
98724.006926648420631
98723.856735447130632
98723.711225957682473
98723.566261760410271
98723.420237844227813
98723.273855194667703
98723.128848926557112
98722.986752616634476
98722.848946169338888
98722.716710913577117
98722.590563356134226
98722.470005309034605
98722.353311723592924
98722.237005199975101
98722.115965118602617
98725.788353419906343
98725.599151028945926
98725.400423995393794
98725.19163433459471
98724.976019395980984
98724.759995256754337
98724.551576324258349
98724.357772520655999
98724.181756974183372
98724.021615343081066
98723.871874701973866
98723.726702623680467
98723.581968725586194
98723.436332716213656
98723.290664535568794
98723.146469161642017
98723.004802586918231
98722.866628549047164
98722.733296421472915
98722.606254474056186
98722.485990459041204
98722.371278642589459
98722.258222834367189
98722.140607112436555
98722.012207093765028
98721.869117604190251
98725.986252271919511
98725.805141644203104
98725.61697320897656
98725.417722473590402
98725.207152322560432
98724.989077983613242
98724.770482820691541
98724.560035970673198
98724.365359190007439
98724.189537951839156
98724.030180666741217
98723.881400173791917
98723.73701226405683
98723.592703494723537
98723.447291385877179
98723.301905739688664
98723.158110960532213
98723.016478865829413
98722.87747990238131
98722.742622022677097
98722.614231865809415
98722.493927322691889
98722.381067998241633
98722.271270167257171
98722.15713631901599
98722.031276420369977
98721.889067914409679
98721.729225207018317
98726.174729788486729
98725.996481752459658
98725.81874084143783
98725.63288896458107
98725.434199616662227
98725.222672909862013
98725.002559716012911
98724.781526730803307
98724.569157124002231
98724.373575735662598
98724.197699357027886
98724.03858456465241
98723.89005984456162
98723.745878929112223
98723.60175883914053
98723.45669989232556
98723.311916741396999
98723.168766048896941
98723.027477985946462
98722.888224493450252
98722.752477141752024
98722.623288989649154
98722.503071517785429
98722.391664831055095
98722.284484017960494
98722.173205727784079
98722.049383701596525
98721.907763112190878
98721.747014121880056
98721.568864219530951
98726.365886230836622
98726.180872820317745
98726.005265097221127
98725.829463557121926
98725.644450595544185
98725.445253463825793
98725.231888770387741
98725.009350414213259
98724.786100825484027
98724.572034601471387
98724.375751465573558
98724.200120135952602
98724.041876386210788
98723.89436691220908
98723.750908379995963
98723.607103172747884
98723.462025857937988
98723.317257826274727
98723.174356448158505
98723.033016494504409
98722.892923571329447
98722.755784136243165
98722.625396919102059
98722.505136200066772
98722.395212410308886
98722.29062031567446
98722.182073918636888
98722.060123008486698
98721.91918520827312
98721.75787473609671
98721.578086516616168
98721.385449487934238
98726.371562053303933
98726.187915711358073
98726.014400461834157
98725.84073363612697
98725.657171221377212
98725.458278757883818
98725.244195196311921
98725.020298021670897
98724.795424346695654
98724.579983082730905
98724.382935630244901
98724.207262194206123
98724.049219015403651
98723.901884151724516
98723.758520083953044
98723.614727968088118
98723.469726525392616
98723.325179816005402
98723.182478816597722
98723.041181919252267
98722.900867651012959
98722.763152066399925
98722.632145786323235
98722.51194453467906
98722.403136693974375
98722.300480888734455
98722.193953701222199
98722.073385504365433
98721.932824292307487
98721.770778036137926
98721.589459201306454
98721.39491507333878
98721.196056330009014
98737.521469206199981
98737.305436456372263
98737.090886470352416
98736.857608419391909
98736.603097056809929
98736.34774326828483
98726.374156041740207
98726.191754115803633
98726.01984083748539
98725.847422699152958
98725.664453030927689
98725.465227141350624
98725.250003714972991
98725.024574259368819
98724.798117994097993
98724.58142906294961
98724.383876877240255
98724.208395878828014
98724.050894492480438
98723.904205482889665
98723.761336023861077
98723.617686375786434
98723.472566033407929
98723.327981361042475
98723.185339163552271
98723.043937734109932
98722.903139735804871
98722.764639735847595
98722.632882258782047
98722.512551147359773
98722.404657548802788
98722.303662004531361
98722.198792404247797
98722.079266044456745
98721.939009304609499
98721.776485862545087
98721.594044188357657
98721.398088261528756
98721.197799093133654
98721.00432026994531
98737.756709285327815
98737.521728104795329
98737.307488763020956
98737.09448713940219
98736.861111224498018
98736.604707071441226
98736.347145720414119
98726.381470158172306
98726.199790181330172
98726.028734348466969
98725.857041424547788
98725.674542296517757
98725.475299856319907
98725.259678368020104
98725.033703183798934
98724.806589101295685
98724.589326365516172
98724.391557702954742
98724.216128157058847
98724.058781078085303
98723.912257282194332
98723.769449467596132
98723.625713969639037
98723.480549994696048
98723.336034057370853
98723.193413553279242
98723.051958319003461
98722.91101549238374
98722.772216380399186
98722.640132104163058
98722.519760594368563
98722.412443750508828
98722.312377438385738
98722.208290154274437
98722.089270228345413
98721.94915454670263
98721.786307082875283
98721.603212762871408
98721.406529520958429
98721.205433068593265
98721.011323801692924
98720.836153776661376
98713.497116130791255
98714.195908024674281
98714.931115517189028
98715.702501290783403
98716.509736685387907
98717.352280312901712
98718.229744598080288
98719.142043597530574
98720.088276060414501
98721.068583953703637
98722.073845407227054
98714.87782520071778
98714.741784602098051
98714.608936757926131
98714.48106562209432
98714.359457648271928
98714.244271986884996
98714.134548902715323
98714.028345618251478
98713.92360209353501
98713.819396106831846
98713.715768497000681
98713.612840607675025
98713.510800055548316
98713.409874002900324
98713.309760800475487
98713.209929306161939
98713.109623157404712
98713.008053700090386
98712.9053522618633
98712.803305841749534
98712.704825104025076
98712.612692748196423
98712.528178019041661
98712.449631810057326
98712.372875269502401
98712.293546899745706
98712.209911125712097
98712.123765399475815
98712.038804037103546
98711.957853814106784
98711.880596119735856
98711.803589713133988
98711.722399042235338
98711.63425999165338
98711.53953641570115
98711.441194594852277
98711.524778580554994
98711.974789435160346
98712.44699314495665
98712.942616409491166
98713.463201158068841
98714.010535357709159
98714.586582913412713
98715.193328254172229
98715.8325591229368
98716.505650069433614
98717.213493028102675
98717.956488725438248
98718.734668198754662
98719.547589396403055
98720.394643735591671
98721.275078448205022
98722.188303667833679
98723.134160401532426
98724.111689347599167
98725.121230502569233
98726.154359638821916
98714.808032115717651
98714.677384726819582
98714.550373309553834
98714.429150210577063
98714.315140549369971
98714.208284730979358
98714.106582678665291
98714.007152723483159
98713.907470160440425
98713.80660149823234
98713.705144868377829
98713.60438315103238
98713.50530814762169
98713.408304144599242
98713.313010689482326
98713.218607532937312
98713.124362057642429
98713.029641989123775
98712.93475915925228
98712.841687139938585
98712.753335283618071
98712.671647174996906
98712.596426139658433
98712.524582521873526
98712.450788590213051
98712.370391878852388
98712.28257060830947
98712.190849654201884
98712.100894615941797
98712.01721537328558
98711.940509304986335
98711.867356436268892
98711.792687077671872
98711.712850753290695
98711.627336682242458
98711.538444778081612
98714.769908756788936
98715.272716788225807
98715.796929712014389
98716.343482395794126
98716.91371862712549
98717.509347131417599
98718.132300520490389
98718.784581738364068
98719.468035736223101
98720.184128270790097
98720.933780786683201
98721.717285627877573
98722.534412645851262
98723.384501948676188
98724.266790559602669
98725.18043209220923
98726.124743934138678
98727.099590307436301
98728.104020214872435
98729.138569626491517
98730.195470578051754
98714.61888293355878
98714.498613653224311
98714.384626550716348
98714.278269589529373
98714.179025041215937
98714.084318799126777
98713.990511618467281
98713.895269215165172
98713.797643784753745
98713.698953139872174
98713.601041064379388
98713.505320131560438
98713.412558051000815
98713.322772011830239
98713.235237587054144
98713.148937069752719
98713.062861823113053
98712.976964382687584
98712.892970521570533
98712.813428121939069
98712.739886091454537
98712.671573602681747
98712.604842242464656
98712.533963869485888
98712.453976254153531
98712.364104182663141
98712.268439717881847
98712.173999360311427
98712.087034274605685
98712.009857842873316
98711.940066827781266
98711.872600041227997
98711.802975756945671
98711.729295170807745
98718.590772191688302
98719.163247841046541
98719.757191427779617
98720.373872959928121
98721.014988224720582
98721.682450317413895
98722.378168148963596
98723.103842150841956
98723.860767753678374
98724.649691711209016
98725.470716767027625
98726.323408628100879
98727.20685643091565
98728.120102136163041
98729.062286162938108
98730.032824214868015
98731.031814330955967
98732.058484053530265
98733.113599315809552
98734.19004889614007
98714.568821940309135
98714.455159925419139
98714.347627800147166
98714.247126063477481
98714.152925256203162
98714.062402553448919
98713.972432465350721
98713.880591178676696
98713.786781169910682
98713.692181305959821
98713.598434669926064
98713.507230945644551
98713.419899268745212
98713.336972185701597
98713.257927049300633
98713.181344236203586
98713.105448613670887
98713.029248015009216
98712.95367377877119
98712.881031470824382
98712.813134907264612
98712.74953424888372
98712.686776507078321
98712.619140819777385
98712.541386728626094
98712.452295971728745
98712.355781722726533
98712.2590549394954
98712.169407329507521
98712.091052756091813
98712.023646784058656
98711.963251590888831
98711.904928367526736
98711.845124166968162
98721.915038645602181
98722.531835325818975
98723.169742495709215
98723.829899112635758
98724.513883671257645
98725.223494070247398
98725.960502473302768
98726.726394633209566
98727.522147987445351
98728.348121973220259
98729.204056590635446
98730.089277610197314
98731.002777589848847
98731.943517771098414
98732.910568449224229
98733.903325931329164
98734.92206402948068
98735.966286134338588
98737.037195922646788
98738.128519029109157
98714.436264217860298
98714.334040412941249
98714.237064584638574
98714.144828896372928
98714.055781527917134
98713.968159645883134
98713.880618581359158
98713.792466593848076
98713.704004180937773
98713.616189039268647
98713.530329231041833
98713.447945627660374
98713.370353701888234
98713.297969908555388
98713.229737404748448
98713.163540452776942
98713.097358003011323
98713.030633373418823
98712.964414431771729
98712.900287251322879
98712.838617345754756
98712.77728475202457
98712.711894774853135
98712.637690285177086
98712.552670238685096
98712.459369366421015
98712.364130123154609
98712.274550738846301
98712.196363091337844
98712.131322782501229
98712.077201461521327
98712.029344780035899
98725.892551858676597
98726.571249263957725
98727.272497082492919
98727.997578588343458
98728.747868509322871
98729.524611145709059
98730.328752066881862
98731.160774189454969
98732.020651491664466
98732.907864721346414
98733.821549050539033
98734.760613994658343
98735.724063549743732