/*--------------------------------*- C++ -*----------------------------------*\
  =========                 |
  \\      /  F ield         | OpenFOAM: The Open Source CFD Toolbox
   \\    /   O peration     | Website:  https://openfoam.org
    \\  /    A nd           | Version:  12
     \\/     M anipulation  |
\*---------------------------------------------------------------------------*/
FoamFile
{
    format      ascii;
    class       volScalarField;
    location    "0.0061";
    object      rho_0;
}
// * * * * * * * * * * * * * * * * * * * * * * * * * * * * * * * * * * * * * //

dimensions      [1 -3 0 0 0 0 0];

internalField   nonuniform List<scalar> 
106891
(
1.1500779407098788987
1.1502247468013053755
1.1503924756946808383
1.1505582972566348321
1.1506941348136032754
1.1507811975863724285
1.1507991030863873316
1.1507499709542925448
1.1506425444751025022
1.1504950868764776128
1.1503295259186696597
1.1540605120811042728
1.1539666453480996733
1.1538118050357009103
1.1536135688464663751
1.1533923896868683023
1.1531735756933698678
1.1529878048210648878
1.1528736082613200153
1.1528608783352025657
1.1529445812182070874
1.153085852984130133
1.1532353838832110071
1.1533457272532663396
1.1533916733709113078
1.1533678701018101886
1.153279925602219258
1.1531424127910501198
1.1529774729235442443
1.1528115336170716709
1.1526681514061096756
1.1525574449029292179
1.152472739884133901
1.1523959661270553045
1.152311924464977988
1.152222745172634788
1.1521504647203215654
1.1521235764528172663
1.1521564287360994694
1.1522369816392310504
1.1523320876931220091
1.1524051417884917381
1.1524311467482337701
1.1523982223710058648
1.1522988684133137482
1.1521257211626547701
1.1518800346984674476
1.1515871924602514298
1.151299619040181188
1.1503890228579716215
1.1503918410174005516
1.1503735603890383743
1.1503380188558327557
1.1502939791097899214
1.1502549145189593371
1.1502359767806809021
1.1502514898206837035
1.1503101214624031901
1.1504126763653885757
1.1505490257711479263
1.1506988680179186524
1.150840407383220132
1.1509484947690280521
1.1510105754994848226
1.1510117743074557151
1.1509551451175243919
1.1508488812355248676
1.1507075768736743093
1.1505536989281044402
1.1540180874717425041
1.1538208386482999845
1.1535823837254313151
1.1533201444384104661
1.1530593191974101153
1.1528433201146934817
1.1527252477108018702
1.1527348859606185716
1.1528609429182044011
1.1530509291107930991
1.1532328135003764302
1.1533481600256334509
1.1533701699843497135
1.1533034015057672672
1.1531714712614253848
1.1530032709081137199
1.152826140998937543
1.1526623617754063744
1.1525257898225842457
1.1524165909492760651
1.1523214957839864603
1.1522214400062411599
1.1521051330200975382
1.1519794129563154517
1.1518692263197978232
1.1518056634049278486
1.1518084298187791781
1.151872131048462089
1.1519682963518373953
1.1520587308385601411
1.1521082450454389612
1.1520926524164605276
1.1519998691796879964
1.1518279549031691378
1.1515906068708217092
1.1513219100509843873
1.1505639991584322157
1.1505949328595188597
1.150602565249072784
1.1505906406369343919
1.1505678710415465638
1.1505472555473201801
1.1505426957082323103
1.1505659931383511729
1.1506228524560691007
1.1507130635658966433
1.1508284717744290404
1.1509522236755793667
1.1510660380377284451
1.1511470188305918949
1.1511867029686202457
1.1511755551954017118
1.151120227549044861
1.1510298687902491555
1.1509127985749914025
1.1507875728050589448
1.1539944743685528472
1.1537882090143420921
1.1535334025315437945
1.1532492306234796153
1.1529698999274344828
1.152749413521207078
1.1526452479397237827
1.1526857574447231247
1.152848969076148089
1.1530665865029348094
1.1532509543899394089
1.1533347830955986701
1.1532973500345449214
1.1531623237656840608
1.1529751983900491386
1.152778540431459442
1.1525997205473850205
1.1524488040297629077
1.1523224973888299694
1.1522083253944854775
1.1520895669534685357
1.1519540699623800339
1.1518033223426793477
1.1516544235704864185
1.1515328293668682935
1.1514615673767423232
1.1514510878482255851
1.1514949390946402907
1.1515721721149172474
1.1516520785824961859
1.1517025151374193914
1.1516965794219211627
1.1516178214483152598
1.1514658650323414957
1.151259207575673571
1.1510330053548243345
1.1507806821266410857
1.1508082889915871583
1.1508164970110759118
1.1508126625651133867
1.1508069293376206321
1.150810123032155019
1.1508320052205185391
1.1508772721628961477
1.1509455924843214891
1.1510306816628377291
1.1511203630231070516
1.1512031125546564603
1.1512611272957684605
1.1512887531269979657
1.1512774044627260839
1.1512336488931851353
1.1511676470771503578
1.1510835665859877608
1.1509967817706712179
1.1536650924619999969
1.1534036401885725542
1.1531205737480365592
1.1528603450745917858
1.15267606813775636
1.1526176012362345791
1.1527040553547069912
1.1529002781337689409
1.1531240183668505228
1.1532787517150753231
1.1532977709855989357
1.1531729659086198403
1.1529504263796950259
1.1526996991071256637
1.1524774396458257186
1.1523084292241669857
1.1521854002504761105
1.1520811771335259799
1.1519673415215088141
1.1518293276358011479
1.151671061806468721
1.1515108010605827893
1.1513747376485856666
1.1512833449230788219
1.1512410459195132617
1.1512379280686952931
1.151258683109910308
1.1512897090754150575
1.1513194048519972412
1.1513335861071505306
1.1513120958688864981
1.1512376566619322293
1.1511070442484783172
1.1509359571382444809
1.1508974401516438579
1.1509599024292889169
1.1510028446648066236
1.1510268267093002326
1.1510357867416038946
1.1510362418791442174
1.1510356442356342033
1.1510416586591734056
1.1510594304851733405
1.1510915631116576119
1.1511363457293590784
1.1511870080506882985
1.1512380421410943754
1.1512769058176473003
1.1513013983721289701
1.1513026611440753122
1.1512829917622424691
1.1512491027040319125
1.1512001993186160576
1.1511505426787835837
1.1534428739902224947
1.1532136536529291604
1.1529724228476012637
1.152768198279296552
1.1526461995660450821
1.152638521292417062
1.1527516176772951706
1.1529468776117208773
1.1531418100463570742
1.1532426392079924149
1.1531884576544926269
1.152980344511498334
1.1526790455688404879
1.1523724569093547476
1.152130746591278232
1.1519753105539189963
1.1518802573215038976
1.1517951962058099458
1.1516763701178551749
1.1515130262014761087
1.1513310121144453291
1.151174329280194808
1.1510777591807250797
1.1510472482979245967
1.1510590785930705504
1.1510778612299437107
1.1510790171748683797
1.1510592673612336512
1.1510292351447122261
1.1509955383586729649
1.1509507646934302727
1.1508795784286058872
1.1507731239594085615
1.1511446993268661387
1.1512018620561610405
1.1512427194887089321
1.1512637828929792594
1.1512650085658571175
1.1512499352134351049
1.1512253185878609241
1.1511987325084538369
1.1511784722649724966
1.1511706412712674474
1.1511761901713017942
1.1511955769181776432
1.1512193516672151183
1.1512458935817986294
1.1512645731412562977
1.1512725364910858517
1.1512719298190179362
1.1512565806711745342
1.1512395131047401531
1.1530010357829125756
1.152794811721792767
1.1526331847253274976
1.1525514579116831193
1.1525664650713909332
1.1526730329885133131
1.1528358849476454395
1.1529877202911553713
1.1530491271193887837
1.1529629876671343425
1.1527256100365825819
1.1523935802125380157
1.1520585168342094562
1.1518008916240751738
1.1516484293078590451
1.1515671243899521237
1.151491047052272787
1.151368944835506003
1.151197310472419133
1.151020028080134372
1.1508960714364817601
1.1508587507184706578
1.1508952288668614639
1.1509572859429892944
1.1509924347796547384
1.1509728596217989605
1.1509050697609111147
1.1508166725180444256
1.1507309757049835053
1.1506527363387923923
1.150570900840480526
1.1504754629065658822
1.1513374416556954039
1.1514104555990960499
1.1514702594245815881
1.1515051315839293089
1.1515066633751835923
1.1514729676027417593
1.1514102874307445834
1.1513305026971556444
1.1512491980771979438
1.1511815214904894678
1.1511374260659210655
1.1511240086089384871
1.1511344483771157599
1.1511652511342922445
1.1512017599822370606
1.1512351375194134206
1.1512630317080201348
1.151274991297258854
1.1512839548780979815
1.1526074851077416916
1.152505035650245091
1.1524509996403919931
1.1524467984547523969
1.1524875482336338628
1.1525596558873969499
1.1526312797585780423
1.1526511344705940854
1.1525676767454076099
1.1523619476126001349
1.1520645522069952182
1.1517445998359654435
1.151476350010477212
1.1512987986766425319
1.1511976088014972408
1.1511239358657656684
1.1510350591441469437
1.1509223302069711004
1.1508145860030758456
1.1507561677468201022
1.1507703544787957206
1.1508384106533615654
1.1509110482685449561
1.150940435968197173
1.1509077510617284901
1.1508239507127759893
1.1507144827230495476
1.1506007169543994717
1.1504914882143140176
1.1503859554665820664
1.1516077209526724978
1.1516878753120360912
1.1517362244695099616
1.1517379253194253153
1.1516869719259976712
1.151589048417748451
1.1514598097315960068
1.151321776745402925
1.1511982851347855039
1.1511068777330664137
1.1510600054727637698
1.1510538395795311128
1.1510844177589176773
1.1511343531439830468
1.1511891402858036582
1.1512417472757097148
1.1512778934701068945
1.1513109048089884556
1.1523109749577911121
1.1522674979278930696
1.1522157023656185437
1.1521605124966995959
1.1521203491302736133
1.1521049209095965971
1.1520968249048886278
1.1520543989577833877
1.1519367031324088124
1.1517314952899253555
1.1514663282555890333
1.1511975684154116539
1.1509843231208378711
1.1508595716486138549
1.150817013700208058
1.150825761835579053
1.1508529862568044333
1.1508785245133277275
1.1508988390493466447
1.1509171122433079493
1.1509309533434834982
1.1509286507221105911
1.1508995437554818686
1.150844101462880964
1.1507703893633363101
1.1506830513053818432
1.1505804818951499424
1.1504627267532043788
1.1517441851254353047
1.1518397151301158488
1.1518979902888184519
1.1519007228717568214
1.1518400038725991053
1.1517213664277872187
1.1515620172294374068
1.1513872894165673166
1.1512246573016462481
1.1510961534974133436
1.1510181261231586802
1.1509902232146154155
1.1510095255704155814
1.1510595676179724567
1.1511248329421472913
1.1511964197028858869
1.1512573831235761723
1.1513199160621123696
1.1520207510245574767
1.1518988513812369323
1.1517465568085332173
1.1516033303345187822
1.1515098414485409606
1.151479408891632028
1.1514845889432743231
1.1514688630279787951
1.1513786107699386374
1.1511965266019501541
1.1509574927517809417
1.1507370640329406264
1.1506133058802614499
1.15062720298481036
1.1507639846710651099
1.1509618557571072994
1.1511414354055138354
1.1512386118776019028
1.1512275798990196929
1.1511251537282023438
1.1509789438566804254
1.1508431350314716202
1.1507492833014769662
1.1506941826318728417
1.1506494180670863159
1.1505857181047642879
1.1504943401097778022
1.1518745202821449869
1.1519295918589660399
1.1519291841709502489
1.1518667087007421479
1.1517470729114429595
1.1515856581540335757
1.1514051125974720247
1.1512307381802127093
1.1510840295895963248
1.1509824927099028269
1.1509299749010166725
1.150927714202615082
1.1509645628207196832
1.1510283540505832356
1.151111762492999846
1.1511973727166180392
1.1512942282524418758
1.1518041248167008028
1.1516870788727460173
1.1515198911777966284
1.1513250695059749074
1.1511473541721852776
1.1510322670395876088
1.1510036141834780743
1.1510455906892280709
1.1511054520942658463
1.151116477970027141
1.1510352965476158271
1.1508739678312547294
1.1507022645643640857
1.1506137482659075655
1.1506773202810560708
1.1508956891012760426
1.151194643519368066
1.1514578433926989653
1.1515828343549818769
1.1515270568806139639
1.1513235093291973588
1.1510584839478232855
1.1508232340189765708
1.1506702216687236806
1.1505967998687818277
1.1505634242096425268
1.1505297247340888767
1.1518064578366624673
1.1518006349891862783
1.1517449539629127653
1.1516439770657693753
1.1515086122239173161
1.1513544303353124842
1.1511995671096533211
1.1510600469326102147
1.1509509639045854001
1.1508794094071435055
1.1508520694290151898
1.1508667352333974421
1.150918560500680865
1.1510039878754139142
1.1511066230645108366
1.1512305649179406242
1.1516777922362664288
1.1515519673483276542
1.1513757041581202945
1.1511801606528038189
1.1510115596394141502
1.1509093335918443302
1.1508881491319682411
1.1509291889150670141
1.150986433830450073
1.151009314372291259
1.1509687993649189153
1.1508752403860280644
1.1507792343143570246
1.1507511311791793762
1.1508445313694277701
1.1510596598268001411
1.1513336519039822914
1.1515671480547990946
1.1516729323167198551
1.151617926222592514
1.151434542557948193
1.1511947280007461814
1.1509667123899924857
1.1507867392768118542
1.1506570452427697937
1.1505651607452864749
1.1505012214306067353
1.1504628421752249867
1.1515758979050643163
1.151537909759170919
1.1514660468798030291
1.1513679775820144791
1.1512531528541845027
1.1511328094561166235
1.1510178601618124006
1.1509209206016992599
1.1508506189338414405
1.1508161710302866609
1.1508204977811344882
1.1508628210410833947
1.1509418211357893558
1.1510427707372958839
1.1511664438843989267
1.1514791727741764404
1.1513199499461868047
1.1511590666673412464
1.1510341611565475528
1.1509699490963276602
1.1509669505671651368
1.1510046701309206707
1.151050833581819699
1.1510760711878111895
1.1510663061689394571
1.1510315337340115693
1.1510029071800027545
1.1510195609361884017
1.1511087723978234987
1.1512656134431524801
1.1514463893083295432
1.1515867913994344285
1.1516362057429403443
1.1515807008271354839
1.151443318206063271
1.1512647604631758291
1.1510773877467781467
1.1508962119001271418
1.1507296093265737547
1.1505888630073115575
1.150487218580297899
1.1504332781604722502
1.1513315828828081244
1.1512887467007828501
1.151224550362593968
1.151144882571525363
1.1510576024185714683
1.1509709566371468803
1.1508952723181182787
1.1508390648058446359
1.1508114042232633345
1.1508170510100135253
1.1508565996906121587
1.1509286801532954136
1.1510191929362154628
1.1511264399547045389
1.1513930614482938974
1.1512753119097045573
1.1511973514926396867
1.1511670922645158566
1.1511728049367315752
1.1511951678655905074
1.1512163299415048012
1.1512276161009451503
1.1512309096016952736
1.1512341791246560874
1.1512460281162200104
1.1512746858247939752
1.1513260690019697652
1.1513953824828273564
1.1514633814451982197
1.1515046523305230153
1.151503199131632238
1.1514598000438702741
1.1513843541418338212
1.1512848490511180533
1.1511619268188932885
1.1510129230198185013
1.1508466923253235503
1.1506888069049654444
1.1505682745931720135
1.1504991831882951381
1.1511088411363701312
1.1510757424036350827
1.1510287741141966844
1.150974362945956786
1.1509190840516223542
1.1508712476785285528
1.1508386641734345002
1.1508286158884712957
1.1508448071661248058
1.1508865455323544769
1.1509510798364424033
1.1510247318783153325
1.1511045775657120505
1.1514573463043005219
1.1514299256514906045
1.1514366291598796543
1.1514544323905464562
1.151464534791678318
1.1514649166295278793
1.1514674716001933596
1.1514833067336702754
1.1515115456131379545
1.1515408103750264246
1.1515589780598536329
1.1515603993631853275
1.151544035209911554
1.1515115683471492947
1.1514676067483442523
1.15141905733835892
1.1513747081734764244
1.1513380562412434127
1.1512977410432601033
1.1512313004696379526
1.1511242190219199699
1.1509849037221728807
1.1508414939150790612
1.150724443483253534
1.15064607215567416
1.1509267591375702544
1.1509080983124122533
1.1508837025334557325
1.150859412855441688
1.1508420865741129102
1.1508378122831806056
1.1508507018245168751
1.1508820576009763936
1.1509285862911096121
1.1509854763258184907
1.151040242260548796
1.1510905099592152467
1.1516756191840722412
1.1517146028205709207
1.1517498143186972737
1.1517616908611432169
1.1517575121753051981
1.1517581578158069266
1.1517752340755413876
1.1517996084501871401
1.1518102457265428917
1.1517902907025661108
1.1517346772800700627
1.1516489442404087562
1.151546992553604154
1.1514479232839536227
1.1513705045066282562
1.1513264709274337871
1.1513135755750691924
1.1513131641197971167
1.151297927272583177
1.1512488822127100452
1.1511667306252442167
1.1510685001367533253
1.1509721536792403285
1.1508823446904155041
1.1519530505333441806
1.1520216845155932806
1.1520639819738869303
1.1520847263100761904
1.1520992711056785573
1.1521135235996902146
1.1521151525818216221
1.1520843497608297401
1.15201039224722801
1.151895508659997569
1.1517524979022750742
1.1516014043087536844
1.1514647631076906364
1.1513611309661579973
1.1513006771317224608
1.1512837406969202991
1.1512986820064621263
1.1513248861680216439
1.1513403432754762967
1.151330350199718966
1.1512913275793612566
1.1512243393432766148
1.1511266096818757454
1.152323013594129808
1.1523751147782519411
1.1524039962504253332
1.1524071370902193578
1.1523739404108499507
1.1522939007868737704
1.1521680327986500991
1.1520089705234808353
1.1518361073534784111
1.1516687009030526223
1.1515225014774368439
1.1514091780231836548
1.1513369666673478608
1.151312837569706371
1.1513387662987899507
1.1514043511898246486
1.151484951239252208
1.1515488455941669255
1.1515680109108143991
1.151525087746894771
1.1514141668505495364
1.1525902710103732574
1.1524673409081611641
1.1523018664646995646
1.1521156478407728052
1.1519321398956530178
1.1517670577258889431
1.1516245508373708084
1.15150624870444096
1.1514209593054975933
1.1513856102083359634
1.1514161543392675835
1.1515109526423015218
1.1516426400833210675
1.1517642077413481339
1.1518262627304933776
1.1517966663872716282
1.1516694417227262282
1.1519928929464620104
1.1518434617404309517
1.1517167039317490751
1.1516065990254438223
1.1515217283652035007
1.1514860547213658926
1.1515252792908441393
1.1516442026783415553
1.1518128165560912457
1.1519723787824855954
1.1520589599799426761
1.1520312634149463271
1.1518856601885858471
1.1519375477041480238
1.1518299173017563231
1.151733359983053484
1.1516547491016726479
1.1516218512648754846
1.1516663129939148646
1.1517972245121097519
1.1519835083929093056
1.1521595404871682877
1.1522531047083912625
1.1522190336099313868
1.1520577200765895753
1.1461268348306314913
1.1451017149826570041
1.1440632029906900868
1.1432699427480579324
1.1428993969946137366
1.1430177467785622714
1.1435722566907595699
1.1444089706092139824
1.1453180025259410701
1.1460959939412140862
1.1466019381650061071
1.1467812802046906118
1.1466675402860904143
1.1463518861739359078
1.1459548736092239896
1.1455868924866505765
1.1453094125596972042
1.1451351532158702273
1.1450448294834907337
1.1450024684293163002
1.1473176896491390497
1.1469595174195559295
1.1461003838465750881
1.1449836581850829642
1.1439081309504530726
1.1431433339913001923
1.1428668513405431106
1.1431190509331863314
1.1438005032303761865
1.144711437973616297
1.145621467144460448
1.1463368709585561867
1.1467418551964707607
1.1468161491999291357
1.146618424610092779
1.1462518479451258013
1.1458332009137415231
1.1454511075389408603
1.1451610721580882668
1.1449902423677082997
1.1449373676818164203
1.144965601067190919
1.1457221758269091616
1.1468172364127828811
1.147474062965305297
1.1475252900962553682
1.1469621014799642467
1.1459362606643199722
1.1447281619564864119
1.1436582062169593499
1.1429994610027194302
1.1428943329356930914
1.1433198762645091495
1.1441138244246553679
1.1450447668488821229
1.1458866152605409194
1.146476694196005619
1.1467450611889808965
1.1467111183263203333
1.1464491260750886426
1.14605738919422806
1.1456325131936559991
1.1452590157720927699
1.1450051504235687627
1.1449057149400025946
1.1449398459616866308
1.1450392822678183702
1.1451217784578475722
1.1442947671587864189
1.1453439459673031564
1.1462454709920051332
1.1467784318633660323
1.1468112801274787937
1.1463395847951165507
1.145479077981728766
1.1444550969450020261
1.1435419755779141493
1.1429822858772227256
1.1429101773586707314
1.143307209402715463
1.1440241044235317514
1.1448477826650591549
1.1455742036864815514
1.1460679404476417087
1.1462818557356342364
1.1462486702693674978
1.146032865158113534
1.1457010035242889412
1.1453213763362819488
1.14496837254931072
1.1447168332493007359
1.1446179651007586386
1.1446660496366309889
1.1447985163020226729
1.1449311081359403452
1.1450013393832434438
1.1440965205221336198
1.1442522053015835581
1.1443074452341390757
1.1442669074689557629
1.144147646321995726
1.1439946074544578014
1.1438593192004833377
1.1437756904670446367
1.1437717992809499634
1.1438797404558673776
1.1441170468111321323
1.1444656700398494475
1.1448599170891455845
1.145211256092605101
1.1454475837898048241
1.1455416660705430854
1.1455172980777745817
1.1454315389513034518
1.1453416897875008384
1.1452635140667086766
1.1451646683093223977
1.1450143600039155434
1.1448260359505302297
1.1446603270703761268
1.1445939996864444854
1.14466918587817168
1.1448730348373177268
1.1451605355338314585
1.1454896540791237314
1.1458268427799362943
1.1434373399631270196
1.1434265395677327692
1.1435190168147939538
1.1437839220613503777
1.1441980696855023059
1.1446815280260480563
1.1451451872003053367
1.1455073027610709335
1.1457083488522763481
1.1457403045193865765
1.1456674304705198875
1.1455935485889565673
1.1456058467821481628
1.1457340534909570273
1.1459533413390170509
1.1462114053638916555
1.1464633486936308682
1.1466901554266479835
1.1469010599369335868
1.1471119652683301471
1.1473082818731807908
1.1474392555704153729
1.1474718681464892711
1.1474385952630021812
1.1474278549591017118
1.1475354545918623472
1.1478054640013715115
1.1482083645289282714
1.1486688850588118171
1.149112759179893084
1.1494805263007772389
1.149717598531345697
1.145397393697382471
1.1453971123827129119
1.1455446993040871995
1.1458906637897106062
1.1463880195072460033
1.146935606244195105
1.1474333650861630041
1.147801688208210491
1.1479905995358556936
1.1480057599577480065
1.1479205230734830234
1.1478469440764607068
1.1478684135705221614
1.1480039976792593137
1.1482152483342245031
1.1484376475928144146
1.1486194584400644114
1.148741163733940418
1.1488197556355750351
1.1488818140691710035
1.1489178297535702633
1.1488783766416468257
1.1487281633243811019
1.1485054237903669083
1.1483121947106724736
1.1482527888128166715
1.1483732732788374253
1.1486395947367942227
1.1489677107290108271
1.1492768083578783767
1.149504413084013521
1.1495949114007555369
1.1494992785348836506
1.1414601641693389311
1.1414137543596212243
1.1417243573019670855
1.1422295646262616842
1.1425243712703136989
1.1423510073704354895
1.1460435624172298219
1.1459793994072557943
1.1460710313958850648
1.1463685527976283929
1.1468219377662540737
1.1473251417194261226
1.1477735983617001203
1.1480846809275024878
1.1482083220900645149
1.1481491219089052791
1.1479831798956221522
1.1478284355279404494
1.147770710518656978
1.1478300948011483928
1.147965911685661311
1.14811274666887142
1.1482183404468140342
1.1482649403884979122
1.1482740481439133173
1.1482750119414304457
1.1482559441339628137
1.1481617356993594203
1.1479518355137308117
1.147663961057933113
1.1474113204217262219
1.1473068529449281794
1.1473975445696751319
1.1476447938810778737
1.1479596889442136298
1.1482567954488989148
1.148471496351112231
1.1485464117294406083
1.1484313428293302373
1.1481066236739982944
1.1438521310378131357
1.1435508580826105884
1.143498011515308832
1.1438291056728697725
1.1443773731656732284
1.1446951028021863372
1.1445062241084826837
1.1460028890098470367
1.145905497705420828
1.145969147608206784
1.1462439730203275445
1.1466799110959928765
1.147168711899668514
1.147602601755381313
1.1478950422740938908
1.1479966950038580364
1.1479113945686982845
1.1477190684945433041
1.1475409909511853357
1.1474656747761771136
1.1475116253045520853
1.1476353631407323341
1.1477708212592434567
1.1478646391504099267
1.1479004289868779409
1.1479019406944370729
1.1478995340961566374
1.147879178615232032
1.1477816181995685874
1.1475644848404740195
1.1472633785768411308
1.1469997660713180387
1.1468928029171674421
1.1469876775574132655
1.1472433816157809883
1.147568592850252589
1.1478741548585280619
1.1480940290342587229
1.1481700316078187196
1.1480517023946177346
1.1477217275295881205
1.1472240543489631293
1.1494530892723455739
1.1494041858492483055
1.149389027765508775
1.1494143148144193578
1.1494787920027851325
1.1495824187685099727
1.1497117086550661114
1.1498587180732589008
1.1500032832101017011
1.1501272998019003158
1.1502171527138851381
1.1536635967122734758
1.1536059050643394652
1.1534965407710011664
1.1533410319654193721
1.1531560927206434553
1.1529706419280869589
1.1528140678355534021
1.1527069894781363235
1.1526452818259227406
1.1526139763456684229
1.1526048338642447266
1.1526152698548952635
1.1526449683510699984
1.1526940124533171517
1.1527595223968278848
1.1528363558015009005
1.1529177420047720393
1.1529856073852859932
1.1530123893367472121
1.1529726027486233431
1.1528599234320853206
1.1527013577969777991
1.1525507489365702796
1.1524620745406963795
1.1524542792893066601
1.1524933856539922861
1.1525096405764938545
1.1524474384104819169
1.1523052147654351263
1.1521380946780985788
1.1520197488940873143
1.1519938775049882729
1.1520482661810051983
1.1521245303672129623
1.1521576378947802066
1.1521132643771327952
1.1500067392856776483
1.1500443107801172626
1.1500758514611950645
1.1500947603966946708
1.1500948358976805785
1.1500710577186170624
1.1500214316865711162
1.1499482287693225668
1.1498596165762311472
1.1497671260848474351
1.1496852548143854378
1.1496287397896316484
1.1496079827930645312
1.1496309872346033298
1.1496952080228410864
1.1497990178049046772
1.1499267640925245892
1.1500674146557328115
1.1502010901126955567
1.1503093115334532825
1.1503816145953602579
1.1537908145953585937
1.1536959359909602085
1.1535406067286753107
1.1533347503954753943
1.1531038563550886078
1.1528905583933564127
1.1527282604929813825
1.1526315929452823905
1.1525845470964299899
1.1525599296835582486
1.1525363712004215166
1.152512339646569739
1.1524994796451213386
1.1525064414791641454
1.1525347852096485823
1.1525802716483799504
1.1526309570933390702
1.1526664952160423638
1.1526612155466902099
1.1525941204340017787
1.152470058703438438
1.1523274769680136309
1.1522241904517629418
1.1522099592874415208
1.1522907280086331916
1.1524120735697056528
1.1524861325014035263
1.1524446081252159857
1.1522822362900557724
1.1520616288654272896
1.151872092054327501
1.1517748231824975758
1.1517697375726037023
1.1518037514303958169
1.1518095383552831024
1.151747481722160682
1.1501382735590039985
1.1501841144399986838
1.1502321907893102715
1.1502720441950513575
1.1502925570732818183
1.1502850998720648423
1.1502460796991473835
1.1501777612798143036
1.1500893219933898681
1.1499941267539073309
1.1499082031644214386
1.1498477798171566899
1.1498250961784091118
1.1498493781861227614
1.1499160855866095154
1.1500211867513343567
1.1501472272252331042
1.1502809334013965881
1.1504029734525522688
1.1504934883770574494
1.1505447715177630208
1.1537268315838726807
1.1535392846015981583
1.153307260587435934
1.1530638625868359082
1.1528479182974420425
1.1526995930783452415
1.15261289500911146
1.1525687575390337614
1.1525333883941755175
1.1524806102889399995
1.15241502383398986
1.1523528177371074044
1.1523070786755864603
1.1522834805141302095
1.1522809959773916422
1.1522918092915392929
1.152298664742089862
1.1522759679347369666
1.1522028236699766168
1.1520825333116995193
1.1519540218801613829
1.151879892436808106
1.1519103395519572075
1.1520480376569739445
1.1522333949920877672
1.1523664947129008684
1.1523638089081977842
1.152207799671717714
1.1519556087580047343
1.1517030848108407159
1.1515266401754826742
1.1514458206291340314
1.1514240916241180734
1.1514009994184484231
1.1503601614621199456
1.150418193770124331
1.1504686825847987297
1.1504983234458168173
1.1504966095514455038
1.1504590426345939758
1.1503887814624107477
1.1502973627695702863
1.1502007943423273595
1.1501168928794924806
1.1500616585535854419
1.1500459429457217109
1.1500781870594551926
1.1501522321985242492
1.1502621102220522697
1.1503883670914987203
1.1505154591460726721
1.1506255640124853912
1.1506981706388625941
1.1507275179893732275
1.1537253178750102034
1.1535343713034560409
1.1533103629023524483
1.1530815813826831295
1.1528842606603555421
1.1527377753031875507
1.1526416122713871726
1.1525685188412904125
1.1524897751263014634
1.1523977613369154049
1.1522975177235863509
1.152198476363540669
1.1521088798213301452
1.1520352070632651209
1.1519828113014694004
1.1519534120965460033
1.1519376240246468335
1.1519116263791864263
1.1518483338788085835
1.1517410880301723886
1.1516213251312510391
1.1515502849387830864
1.15158412240494612
1.1517337203530453316
1.1519450935966668581
1.152118255336171293
1.1521593016072959603
1.1520323413961917058
1.1517760471269509193
1.1514778713572599855
1.1512239563814721244
1.1510577861590365334
1.1509693004304406561
1.1509188907962062398
1.1505620532253928445
1.150617201580700355
1.1506625058885506796
1.150684366858087504
1.1506736472612884015
1.1506282983709843482
1.1505534466548084094
1.1504616161947263109
1.1503698856248010252
1.1502973149525470564
1.1502596686627100109
1.1502650196532340221
1.1503184141237488003
1.1504104738206251124
1.150532935801244605
1.1506643200234203395
1.1507867773107660625
1.1508845496526054486
1.1509380293943680673
1.1509444264544232972
1.1535680163808916809
1.1533760137154240866
1.1531739401737541861
1.1529818135045519778
1.1528121311100427704
1.1526675843557903089
1.1525403410697108164
1.1524217508207970084
1.152306108966008491
1.1521912932064213297
1.1520743221971034842
1.1519520843558417322
1.1518289822222578245
1.1517183679832365684
1.1516355405404365975
1.151585787278633477
1.151553208177704013
1.151507584798610262
1.1514276143310686606
1.1513269386695959007
1.1512554247669637419
1.1512676945137025886
1.1513870664047767267
1.1515803332603153919
1.1517631453537779951
1.1518417851323121681
1.1517620057469761807
1.1515331124885581637
1.1512191377231393297
1.1509030674223239554
1.1506504379042303832
1.1504915949827354549
1.1508090059448707887
1.1508272877520506761
1.1508230560264758324
1.1507898014849635704
1.1507289285814354951
1.1506487956685653717
1.1505631298382983374
1.1504882138418253135
1.15044121740573968
1.1504353003830460889
1.1504748633824852799
1.1505608367213673304
1.1506800642737702312