/*--------------------------------*- C++ -*----------------------------------*\
  =========                 |
  \\      /  F ield         | OpenFOAM: The Open Source CFD Toolbox
   \\    /   O peration     | Website:  https://openfoam.org
    \\  /    A nd           | Version:  12
     \\/     M anipulation  |
\*---------------------------------------------------------------------------*/
FoamFile
{
    format      ascii;
    class       volScalarField;
    location    "0.0061";
    object      T;
}
// * * * * * * * * * * * * * * * * * * * * * * * * * * * * * * * * * * * * * //

dimensions      [0 0 0 1 0 0 0];

internalField   nonuniform List<scalar> 
106891
(
299.10403543774890522
299.11903959128198949
299.13677315954464575
299.154242592569517
299.16938446748326896
299.1786767029816474
299.18168273545438751
299.17684866992709658
299.1657380704298248
299.15073975253540084
299.13349064099685393
299.30819438626201645
299.29508332715107599
299.27519522621059878
299.25171494156847984
299.22784813269583992
299.20680073897841567
299.19171552043059137
299.18604247217098191
299.19210370032504898
299.20854726872670426
299.23049228666758381
299.25217807484318655
299.26825108096187478
299.2759294375903778
299.2747922062603152
299.26576599399135148
299.25085951772319959
299.23297003205868805
299.21547084459047028
299.20141660021045027
299.19236609163510821
299.18796358817866121
299.18646110721203968
299.18619044490867509
299.1871082933628827
299.19114798636843489
299.20089614392293242
299.21747751128742721
299.23925205402946403
299.26235130088969072
299.28252730012394522
299.29678416693695908
299.30358844903838644
299.30198884743703047
299.29118044226009943
299.27135844019187516
299.24532256485684911
299.21880229153100572
299.1404289422237639
299.14110448551730315
299.13937608490755338
299.13555798201343805
299.13056308095013947
299.1257918320370095
299.12300940915611136
299.12372613693321455
299.12913252178611856
299.1393266231991106
299.15326828033801121
299.16916815874355962
299.1840179989918056
299.19621020330532701
299.20277100889882149
299.20383802933810102
299.19820041518852349
299.18691263231630728
299.17266787820483387
299.15655778128387965
299.30571141146077707
299.2863661866788334
299.26146792652377826
299.23388347090758543
299.20714015725030777
299.18630755521127185
299.17710983027086513
299.18252145584619939
299.20094743827269212
299.2263273501708909
299.25047475482210757
299.26666774336837307
299.27168962651558104
299.26588923700904843
299.25193768495319091
299.2333473353297677
299.2136731277769286
299.19601695828384891
299.18255095300668245
299.17384361570759665
299.16881773027967029
299.16554197172951035
299.16266791826859617
299.16057300665778484
299.16145250172723991
299.16812614370218171
299.1822379681309485
299.2028208027634264
299.22648746086599658
299.24883489254170854
299.26581537709046188
299.27460992993354694
299.27379404382492112
299.26314385286735842
299.2441791205145023
299.22065989291371579
299.15872133461397198
299.1623482324065435
299.16332845310023458
299.16198446094006158
299.15923865169611418
299.15645383126189927
299.15525478096299139
299.15687694924838524
299.16219563943860749
299.17117887018196143
299.18296704302491662
299.19615050559849578
299.20797473182295789
299.21721127921591687
299.22124233791652159
299.22076228482114857
299.21521736057229646
299.20531749718486481
299.19372008648485917
299.18045959369698039
299.30164568697648519
299.27913144472580598
299.25181018013495304
299.22252921033532402
299.19531011571717727
299.17582946112457876
299.16982734248574616
299.17981581982616035
299.20293161000728333
299.23141263013462776
299.25548588499839298
299.26761270986708041
299.26536007328905953
299.25128230828806863
299.23059494601642427
299.2085012396182151
299.18876723626732428
299.17331687657667771
299.1624799821254328
299.15535103798680439
299.15027059803952625
299.14576660495754368
299.1415834028062477
299.13899323360402605
299.14012473792894298
299.14687101651907142
299.15985800592517307
299.17800591993085391
299.19878270439903645
299.21870106741613426
299.23419007932460545
299.2423097396472258
299.24130600299508842
299.23119811232658094
299.2140738328370162
299.19382925630156933
299.1814765500548674
299.18457760859854488
299.18540416513303626
299.18473251276395786
299.18363096236140564
299.18338966166902537
299.1850170691749895
299.18925811840347251
299.19603762564298677
299.2046737619242549
299.2142703167644413
299.22269778695562081
299.22938530356759657
299.23195561250048513
299.23117231537111138
299.22677311777823661
299.2191718640980298
299.2111299973801124
299.20169762349291886
299.26405181799464117
299.23739639725647521
299.20908512828316361
299.18420628389390004
299.16842068027341384
299.16681452011317788
299.18113891675812965
299.20736822733499594
299.23642788595441289
299.2576597287381901
299.26351398920814972
299.25272700008332549
299.23001509225827022
299.20294887957004448
299.17808211428064169
299.15881329507072905
299.14521160811409572
299.13514277611642456
299.12612612469649775
299.11688694673830469
299.1078633080226723
299.10078402135690112
299.09805593096990606
299.10140438232429005
299.1108126729320702
299.12473666553000839
299.14107639088518908
299.15795209709466462
299.1737785956468656
299.18679644700313247
299.19469845869855362
299.19555501930210539
299.18900957774417293
299.17678932925514346
299.19270127855173769
299.1996330002299942
299.20437984383949015
299.20695178332510977
299.20776451902878534
299.20749973573754232
299.20706207522641762
299.20722014346165452
299.20873457082166169
299.21181496222459373
299.21624417785380956
299.22171367725280788
299.22668284434007546
299.23123298418028071
299.23332331974518183
299.23361679612662556
299.23168554915156392
299.22722845310750017
299.22293043947956903
299.21713423965007905
299.25103128274321307
299.22150841737430937
299.19145442037034854
299.16738728184850515
299.1548376541423977
299.15731295874957141
299.17510447323394374
299.20338538960163532
299.23242997570736179
299.25118181288769392
299.25209553561199982
299.23445281395822803
299.20433832358929749
299.17130721384455683
299.14358765522689509
299.12457616381317393
299.11272394063126967
299.10371608416443223
299.09360434504714021
299.08154709816358263
299.07022418179627721
299.06396327933862267
299.065939837685562
299.07617283371689609
299.09152405069227143
299.10766647777063554
299.12150143493374799
299.13231323168088238
299.14099140299015289
299.14810578224000892
299.15281298794900522
299.15346885375799957
299.14914835881603494
299.21817326965009443
299.22444207579223985
299.22888911333154738
299.2311344393614263
299.23115673079405497
299.2294150435173492
299.2265643203367631
299.22357879986759599
299.22125200692096314
299.22017723232590924
299.22086864457617139
299.22240589291646984
299.2252589492026118
299.22747009804641038
299.22941436071812404
299.23038165288750179
299.22928511078441716
299.22855998764083552
299.22589868378543088
299.19838262904255544
299.17590339232566521
299.15895904814976802
299.15183329404578672
299.15655382379162575
299.17249621288709704
299.1955602693181504
299.21799472343775506
299.23056062122589083
299.2263096170066774
299.20409680504218386
299.16953885854059081
299.13251715670321573
299.10232029806246601
299.08304708722823761
299.07234586767958717
299.06430065427167619
299.05419009827704713
299.04193768021076494
299.03212445262494157
299.0306523478045051
299.04048505747516629
299.05954031555347683
299.08193534237432232
299.1013858246020618
299.11435202396972954
299.1210971139402659
299.12429300880097571
299.12628901637833678
299.12756493731325236
299.12699327854386411
299.12358355385902087
299.23756377781444371
299.24546754626493339
299.25196519586086197
299.25580104886006438
299.25605551103262769
299.25256868926112475
299.24591777361490585
299.23748110899134645
299.22881785513430941
299.22146189240140757
299.21687757951099229
299.21487779969817211
299.21622266982694782
299.21883614627245151
299.2225384400483108
299.22622786220580338
299.22811153594057032
299.23036193937161897
299.23020098028200664
299.15500918034291544
299.14319925027552927
299.13864255789093249
299.1416897422957959
299.15153045919817032
299.16602767023829301
299.18088794869305502
299.18969914868972637
299.18610778391735039
299.16744746072674843
299.13671758722534832
299.10152956676535041
299.07058154532808203
299.04919261675058806
299.03708422125777133
299.03007363975137878
299.02423533237094944
299.01886117537617338
299.016870204382883
299.02257934167948861
299.037918820462437
299.0602441377230889
299.08358455758747141
299.1021335206854701
299.11329124953999781
299.11780974729299487
299.11815231998565423
299.11649262845759267
299.11379277840228497
299.11005728100536771
299.26542952378719065
299.27407384961315984
299.27941373756578969
299.27983901198757621
299.27471062648618272
299.26452427598957229
299.25099428489596676
299.23641833056427686
299.22318233745744465
299.21354595597341586
299.20796263489540934
299.20745847338668
299.21004821065429269
299.21511029608620902
299.22115003942099065
299.2257318953472236
299.23068512451266088
299.2329083909104952
299.12945820467939484
299.12200622434590969
299.11673931735271026
299.11414977710103358
299.11543978311510728
299.12047520505421971
299.12616049314908651
299.12698859931168727
299.11785464614547436
299.09716874163780176
299.06811759569598053
299.03746399979195303
299.01260398545792896
298.99823701222732097
298.99468528185877858
298.99927090897074322
299.00872875344697377
299.02083260639835771
299.03489427406475443
299.05075987051793618
299.06753534557503826
299.0832269778029513
299.09590251164758001
299.10491808238651856
299.11066492344389189
299.11341159869039075
299.11295492197109525
299.10937027767761265
299.27919682740667895
299.28944216204058648
299.29586999041072204
299.29649427659876437
299.29043635890860742
299.27817016419442098
299.26151748939054187
299.24309506880734943
299.22571628677798117
299.21210362120268655
299.20323284229147021
299.20037466976941687
299.20184919050257122
299.20694104718199924
299.21419742595560365
299.22094690127340755
299.2286733720965799
299.23394595371462401
299.08503908492582468
299.07632997524717666
299.0667990101251803
299.05960179834414703
299.05784584049490604
299.06185422180493561
299.06793869563045973
299.06970399713702591
299.0614507104945119
299.04172415518019079
299.01492898744442073
298.98999430918968301
298.97615261294657785
298.97854901095843161
298.99616136755292928
299.02272337390303392
299.04989241351989904
299.07076335128999744
299.08228310996491928
299.08566331942444094
299.08516211914792393
299.08569452000614319
299.08991822723777432
299.0970400292506497
299.10383425062866536
299.10716763075544122
299.10620514192214614
299.29273343089920445
299.29883710080861192
299.29915456733556312
299.29291648245089164
299.28055033677873098
299.26365148221140089
299.24460333615121499
299.2259850994079784
299.21043218337649705
299.19917258014936579
299.1937120707775648
299.19305418385721396
299.19682704621016001
299.20401448818353174
299.21219388710517251
299.2225845060482925
299.23148714181212426
299.06809203980651546
299.05997629503394819
299.04880065421394875
299.03584654732753734
299.02454195143224069
299.01848811058658839
299.0193441556181142
299.02506728720061346
299.03023303780958031
299.02840126679268451
299.01590106598246166
298.99504219164077767
298.97419912472105352
298.96408254465194432
298.97252410864933836
299.00010795826011645
299.03906932537358898
299.07700222248604405
299.10278510850531575
299.11140640123579715
299.10562763409694753
299.09373225156309672
299.08457428927351884
299.0830865010509001
299.08861407706029922
299.09680946123415879
299.10340070447847438
299.28560684232098765
299.28531097875963951
299.27972584212864149
299.26928348897001797
299.25508477833949428
299.2388191459045288
299.22229389792096299
299.20751848400584549
299.19561610646206873
299.18815407299098297
299.18500583138910542
299.1865022154411804
299.19242479793280154
299.20095587277182858
299.21305315701749805
299.22492647708997993
299.0507105566592827
299.04011465272043324
299.02630060680695578
299.01222542540313043
299.00216598373270926
298.99941726798647323
299.00450260668719693
299.01445210972462974
299.02371909054386379
299.02679251891805734
299.02102443797150499
299.00836524999664334
298.99520853509272911
298.98998820174131197
298.99918009866786406
299.02338353137923832
299.05628896863061073
299.08750394643033133
299.10769604986234071
299.11302748723659306
299.10639578611107936
299.09479993834486322
299.08484254045799844
299.07978636692104146
299.07937547945840606
299.08191548202080412
299.08616129799554528
299.0918342842714992
299.26132651826787878
299.25755202471043503
299.25015251745236355
299.23986561309180843
299.22777902022625085
299.21495133642486053
299.20279522891667057
299.19229594899712765
299.18492152342065538
299.18109196296643404
299.1814777522803297
299.18629270663336683
299.19418972985982919
299.20593666100484143
299.21798612079282975
299.0436275135631945
299.03065643081140479
299.01804462622249048
299.00969956079291023
299.00791543173909304
299.01209863053804838
299.01923560217039721
299.02520027053373042
299.02664391722169057
299.02246820038220676
299.01465365355903714
299.00768362653099075
299.00683145542228658
299.01585931088453663
299.03480557886922497
299.05930354596688403
299.08250354792085091
299.09873012082505284
299.1059842952607255
299.10605991891691247
299.10261765310195869
299.0984855175287862
299.09469740191008214
299.09163104109654796
299.09007667215962556
299.09118482490185897
299.09577504896009259
299.23570243189845996
299.2313464916227872
299.22461766278371442
299.21625261417972297
299.20693724606934438
299.19776078414952281
299.18956970116522598
299.18360607347921132
299.18051170849679465
299.1809896662372239
299.18538963911214523
299.19257968219363875
299.20305695385741274
299.21362383748612501
299.03958402614949819
299.03275611532700395
299.0295358735680793
299.03070760435912234
299.03481778173915018
299.03944913080363222
299.04239093537313465
299.0427032607905744
299.04101457248339102
299.03899292726777048
299.03852485743527723
299.04132021629561677
299.04856931943936615
299.06004708349684051
299.07376595879600245
299.08687254802413236
299.09732862904928652
299.10477721837014542
299.10981026781433911
299.11285474537856999
299.11362328663398102
299.11149980359800793
299.10706413025457096
299.10268134619519742
299.1011628818527015
299.10384257776206596
299.21235753777227728
299.20889319119976335
299.20397061531156169
299.19811386469291392
299.1922023474156731
299.18696910896619556
299.1833964407889539
299.18215818677077777
299.18370240653797509
299.18822515396431072
299.19465519423295063
299.20319716993719794
299.21115902275022336
299.05213202423982466
299.05375669197667321
299.05863398084972005
299.06396979922880064
299.06726132138453522
299.06782940207915544
299.06680513785238418
299.06577628014633774
299.06554774630598104
299.06603427491796765
299.06698528490204581
299.06856026832787165
299.0710627897256586
299.07472733460906511
299.07979023069947289
299.08648512464583291
299.09509535954583725
299.10534469083302156
299.11549035335258395
299.12273184269264448
299.12518830966041605
299.12347522178941972
299.12034560305500008
299.1188512731309288
299.12019323048474462
299.19321458350435705
299.19124505470080067
299.18851558722502659
299.18579802846159055
299.18376807226894698
299.18307694463061353
299.18426036775395005
299.18738308544038773
299.19234466237338665
299.19804097748829008
299.20446235246470224
299.20958986542660796
299.07612725513109808
299.08551181982147682
299.09370808885313409
299.09822314300964763
299.09943214374271747
299.09942851705642397
299.09975331271954246
299.10016031686512861
299.09934950632310802
299.09643555988702701
299.0915870280517197
299.08582036840272167
299.08074339023391985
299.07825137526197068
299.07999686660383531
299.08675121224308668
299.09776059456618214
299.1105792984556615
299.12194291679458047
299.12956189240759386
299.13330350324923756
299.1347862804988722
299.13572278833368046
299.1364082400043003
299.10895791701324242
299.11863485033313736
299.12454520943219904
299.12708547073270893
299.12792697575730472
299.12802302660122677
299.12668792610304536
299.12257676054588273
299.11527213624481192
299.10555875947517279
299.09508778680879004
299.08602399231671143
299.08058730029540584
299.08041590438642743
299.08612143210916656
299.09721496967466692
299.11198404785193361
299.12788147766326574
299.1423450474030119
299.1536599744190994
299.16128558515288205
299.16514015566929174
299.16470312727483361
299.14919907662488185
299.15618548740036431
299.15994419707794805
299.16029746833464742
299.15646341732247038
299.14784710684989477
299.13512938940840513
299.12015585159093689
299.10532666783717559
299.09285661146958546
299.08442505891196106
299.08113259901688252
299.08356340540410656
299.0920675681393277
299.1064790866452654
299.12542379088921507
299.14612846098503951
299.16510579414671156
299.17919205140321992
299.18624780628800863
299.18527314126629335
299.176165890134655
299.16293538021830045
299.14522642625161097
299.12612446866137361
299.10875316749024933
299.09522132204364198
299.08618010600713433
299.08174502080697721
299.08256487028444326
299.090006295077103
299.10533377732821236
299.12805150992397785
299.15504457417745243
299.18116008832589614
299.20091277012949149
299.21051404192348855
299.20885635898122246
299.11867743475568204
299.10556154925359351
299.09669870995446672
299.09156863328581721
299.0909767112177633
299.09720186083512772
299.11266047777240829
299.13759737233067426
299.16861727980392516
299.19925927699688373
299.22238384501054043
299.23309913164735008
299.23042411201186042
299.11308736135595154
299.10725748154419534
299.10417399882243217
299.10449410307597873
299.11100025009096726
299.12686215049382099
299.15289008448428376
299.18565183428052023
299.21798263442650523
299.24185923319259928
299.25196508301331733
299.2477414167545362
300.58929191809738768
300.93252413069518525
301.24504056313764977
301.45478001962487724
301.525876745064636
301.46414863197128398
301.30718548448379579
301.10665662205803983
300.91197649583648399
300.76006481633896783
300.67114167481423692
300.64779602170756334
300.67768991015162783
300.73799536944068223
300.80374032266030326
300.85552692580375833
300.88384255284620394
300.89108536565908025
300.88927269222375571
300.89400444451285921
300.18904612171007784
300.38987677797024389
300.69543446024113109
301.02765225621357104
301.30634553154652622
301.47446035045737744
301.51181267017011578
301.43256419444156791
301.27306345602806914
301.07801332646050696
300.89020486094921125
300.74367884103588722
300.65865183831493823
300.63901537872646941
300.67254543242461295
300.73554792671779978
300.80210913445921506
300.85189660184437344
300.87690522455812925
300.88263309905198639
300.88334359367439674
300.89410484724396611
300.37700206621320831
300.20153126371013741
300.15599697465859208
300.26021411898375391
300.49422843151563711
300.80182682336658218
301.10992986209191713
301.35147279451496161
301.48428931002382569
301.49695443111733084
301.40457156654491655
301.24011205157955828
301.04569906400251966
300.86367989282211965
300.72809781375008242
300.65757197769721643
300.65175234099461932
300.69275900109630584
300.75352688017221681
300.80864452581283786
300.84365850532896047
300.85883166691218094
300.86543847398661455
300.87757248255110198
300.90598095259343836
300.95551675081748044
300.65457762128113472
300.45911594696497104
300.3458876068730774
300.34550493815919481
300.46469123574911464
300.68080935251231267
300.94551033745705126
301.20051344560704365
301.3945316076619747
301.49591929028844106
301.49710084053913306
301.4113477057346131
301.26687475724105525
301.0999098389851838
300.94644069205583037
300.83462577090779178
300.77844390036472078
300.7758746880069225
300.81004251352487699
300.85651268134478187
300.89405439133406617
300.91278461756826346
300.91627738458890917
300.91710378040011165
300.92837417595006855
300.95779037630575203
301.00627011341885009
301.06924296523385465
300.66095833387737457
300.64363713131564282
300.71517178648855406
300.86005653107935132
301.04296873684103275
301.22101172576986983
301.35448017080688032
301.4158979208957021
301.39828202622339859
301.31715767754144508
301.20325860221248604
301.0905893926093313
301.00450541591254705
300.95611131388261583
300.94316181559582901
300.95484664592743229
300.9778236889769687
301.00077854356214857
301.01630516807171034
301.01924745366210345
301.00607344973104773
300.97816133391057747
300.94361507149426416
300.91463329227661916
300.90205857656059152
300.90888639477856259
300.92822214760360566
300.94694778937491719
300.95142647717693762
300.93026450603838384
300.84330124425764552
300.81917595229253948
300.81809078799267354
300.83983633980858485
300.87467091545971698
300.90937856604909939
300.93334870855039753
300.93986843577914669
300.92619636980498399
300.89503752205882847
300.85541024266041177
300.81859055668297742
300.79196749859062265
300.77530342540478614
300.76205361381698822
300.74345053536416117
300.71309617819832738
300.66920217592939935
300.61460822474873567
300.55394866941969667
300.48892365741187405
300.41700235266495156
300.33665504877188823
300.25246493950061222
300.174260128661615
300.11217060046556071
300.07048510491887328
300.0455075915267571
300.02860590743296143
300.01149609886488179
299.98802173303619156
299.95306824544894653
300.31908240105212826
300.28729541226130095
300.27108933891486231
300.2757385230920022
300.29658737724702178
300.32323092779824947
300.34513042029618646
300.35358160980393905
300.34275254430428959
300.31277054645630642
300.27126570031714436
300.23039345763714891
300.19937956427907011
300.18051373471706711
300.16988556363156704
300.16090730739495029
300.14856718393417623
300.13138726516643828
300.11162535436233156
300.09233655761897808
300.07248280296283838
300.04658582935991262
300.01056163717521486
299.96827119433561393
299.93067022907052888
299.90914108970167717
299.90879787430810666
299.92598706609993542
299.95143951287093387
299.97622313062100829
299.99367555611092939
299.99813907117521694
299.98454706311736118
300.78344638245192755
300.77075032003619981
300.79683812702097612
300.84502468245563023
300.87062715997114992
300.84277548122094004
300.14309571970676416
300.12445823231757913
300.12227234247933438
300.14254629474817193
300.18058675438749106
300.22525634978615017
300.26510937158695924
300.2908586664995596
300.29683470014879276
300.28345707776213658
300.25897554168807346
300.23613545853095275
300.22418176759936159
300.22520940987772065
300.23480288124085291
300.24599392770011264
300.25334685459989714
300.25512058111519309
300.25365103532016064
300.25202802658878909
300.24890753834102952
300.23823774494712779
300.2154007007426344
300.18411869927126645
300.15646282505491627
300.14476324224409609
300.15435953628968946
300.18123665955840806
300.21569353286747628
300.24837616322042777
300.27242421734337086
300.28198336779553301
300.2718450893408999
300.2397416819743512
300.26509262322156246
300.22497529798198457
300.21010775023069073
300.23601393463604836
300.28607410574750247
300.31265898289416327
300.28507817903323485
300.14991070851186805
300.13802755936762878
300.14311201820049746
300.17099907663316571
300.21665858103784785
300.26854018165346361
300.31496518922040195
300.34657511488728687
300.35807576219923476
300.34978933801335188
300.32997859757495007
300.31134059771795819
300.30330511375569813
300.30801011058809991
300.32106298869098282
300.3355652137187235
300.34585447017752813
300.35007506137293376
300.35066092082200839
300.35087765789535297
300.34942209981244332
300.34000469082235441
300.31788380458868915
300.28646108988243668
300.25848216237017141
300.24685059948103572
300.25670305718927011
300.28386810884870783
300.31869179084105781
300.35177580311187739
300.3762833963162393
300.3861915945109331
300.37594485495287699
300.3431895886154166
300.29199473661537922
299.04163642144902724
299.03636595771388329
299.03474464792566323
299.03692726264154089
299.04367291427132614
299.05369871008247173
299.06734228096104289
299.08200283442653244
299.09683391743089942
299.1101182858019456
299.11895805622361877
299.26211309665404769
299.24540266086330575
299.22660031225797184
299.20775021465817645
299.19085926842365097
299.17819161804703754
299.17139290634503368
299.17101872859075229
299.17519904780948536
299.18115687548743153
299.18721151834438388
299.19269948130585135
299.19764271665042088
299.2025118886481323
299.20782395966068634
299.21399826591704141
299.2212519300793474
299.22846251429388076
299.23327044323661994
299.23325257187696025
299.22771123947455862
299.21922526729082392
299.21307990788835696
299.2145533989880164
299.22528282291870028
299.24138446222764287
299.25518936771680956
299.26045629544813664
299.25665164284839648
299.24933097468948517
299.24619155094416101
299.25190445544387785
299.26528992020774922
299.28028285549032717
299.29006689231295013
299.29105333815675749
299.096980190519389
299.10113660874895913
299.10478823494452172
299.10721060165820973
299.10768867800692306
299.10566594852627986
299.10083745785573228
299.09348602948597318
299.08434633645509848
299.0747377879018245
299.06613679256793148
299.05999883021911501
299.05776975860834455
299.05961337043851245
299.06632639826938203
299.07636382915427475
299.0897401142199783
299.10386373346597111
299.11742581443741074
299.12917374597623166
299.1361850858823459
299.27052927531065052
299.24938947820652402
299.22565896467637003
299.20178779313704354
299.18061180764857454
299.16569299537678717
299.15902930041653462
299.16047220094179693
299.16684454464416376
299.17406695754885959
299.17905462995685184
299.1812202145140418
299.1818633332762829
299.18241311353449419
299.18384907854124322
299.18666331783651913
299.1905101666134783
299.19400166476987124
299.19498388411835776
299.19155594592189118
299.18427962880480209
299.17705871938062501
299.17567539840246127
299.18500245937354975
299.20533299680727168
299.23060894751057504
299.2511942517216994
299.25946663809003212
299.25444725879992802
299.2424156760643541
299.23263647314013269
299.23156361135193038
299.23925483329838926
299.25018586530887887
299.2573017036870624
299.25646113980991458
299.110783630114895
299.11576604234312526
299.12114049804506521
299.1257707641660204
299.12842183238728921
299.12814452353325123
299.12446196185527469
299.11763746763131167
299.10849627395509742
299.09856048031076625
299.08946122638661791
299.08282395626264361
299.08035729991951257
299.08224161078487668
299.08923305258156233
299.09944922812138657
299.11259846173703636
299.1261994459701441
299.13846998401811561
299.14851313114928644
299.15338358771253979
299.26146805505544535
299.23321192371457755
299.20424668531410362
299.17867244712391539
299.16028705429056345
299.15235013524994656
299.15303062023389202
299.15886052588820121
299.16508018646896971
299.16779943872597869
299.16679572206942339
299.1635844302917917
299.15985002275732541
299.15686508772114394
299.15537710174379527
299.15543126393038165
299.1559971683011554
299.1550153427223222
299.15071429726947372
299.1436246448682823
299.13776583587440427
299.13945252223504667
299.15358482147195218
299.18003881650281528
299.21214632288479152
299.23895821078963309
299.25121933309213773
299.24665593174876221
299.23098352788434795
299.21418995191174872
299.20438193197509236
299.20375508934750997
299.20858328111870605
299.21258206138708147
299.13415853481450313
299.14053612714536712
299.1462739700643283
299.14989829839851154
299.1502360080223184
299.14670786803520741
299.13966226063723752
299.13016675293664548
299.12002689405449019
299.1110573783649329
299.10487314079540511
299.10309937693591564
299.10574610335447687
299.11354916768482326
299.12435320876733158
299.13753124055142507
299.15071652533839597
299.1617414684637879
299.17009675024218041
299.17275700791026338
299.27384135946118704
299.24221074913793927
299.21012986108837595
299.18215643224488076
299.16266806365547382
299.1533390153888945
299.15288575538909299
299.15679016605429297
299.16006226127672107
299.1601942103645797
299.15653706658537203
299.14962481208266354
299.14060189012849378
299.13100069049448848
299.122543609691661
299.1166370655247988
299.11341564733072573
299.11127498762340338
299.10793840201063176
299.1028807494211037
299.09919500539172077
299.10282448608899131
299.11903951450727845
299.14835020267003074
299.18451770240267251
299.21651518016693672
299.23399224003526342
299.23277025620814129
299.21666892196310528
299.19484772828241148
299.17650883883828783
299.16646171417590949
299.16385770704329161
299.16463092907457622
299.15527194739161132
299.16130062370547193
299.16645695054864973
299.16924302886911846
299.1686149302247486
299.16424234851484698
299.15666500310527454
299.14706090092619206
299.13735560692151694
299.12949915760435715
299.12509431721531428
299.12551478762401302
299.13034595109229485
299.14010139041403136
299.15234498977952171
299.16610616316580717
299.17911200119186788
299.18889258419574162
299.19544465322121596
299.19580369977495593
299.24579599982951095
299.21890716282331368
299.19571126841492514
299.17859793151387748
299.16815414399320616
299.16321826705330977
299.16113745882142894
299.15919388842468152
299.15532490031330326
299.14843871555427768
299.13807191792540152
299.12441296310157668
299.1089019413387291
299.09413688081730243
299.08287524737880858
299.07664110469153229
299.07446544123013155
299.0735491450752761
299.07166649071956499
299.06993303465941381
299.07308913322702892
299.08632636376893288
299.11159794628036934
299.14501921320282918
299.17736847866444805
299.19841054108496792
299.20205485343950613
299.18898119864303453
299.16579860449155603
299.14129621778323553
299.12252795019253426
299.11283511418508851
299.18133678830287181
299.18361120196072989
299.18361369067969235
299.18056614005394067
299.17450560968268292
299.16630267492888606
299.15727353234780139
299.14926026667211545
299.14402313115090237
299.14290511000791639
299.14692231327074978
299.155193149108527
299.16788704568892854
299.18230492392200404