# Lagrangian Sum
# Time        	sum(number)   
0             0.000000e+00   
0.01          1.691985e+04   
0.02          3.438032e+04   
0.03          5.199655e+04   
0.04          6.814067e+04   
0.05          8.708202e+04   
