/*--------------------------------*- C++ -*----------------------------------*\
  =========                 |
  \\      /  F ield         | OpenFOAM: The Open Source CFD Toolbox
   \\    /   O peration     | Website:  https://openfoam.org
    \\  /    A nd           | Version:  12
     \\/     M anipulation  |
\*---------------------------------------------------------------------------*/
FoamFile
{
    format      ascii;
    class       volScalarField;
    location    "0.009";
    object      alphat;
}
// * * * * * * * * * * * * * * * * * * * * * * * * * * * * * * * * * * * * * //

dimensions      [1 -1 -1 0 0 0 0];

internalField   nonuniform List<scalar> 
75962
(
5.6637632416059032594e-07
6.9545916311036144769e-07
8.0907098468842306395e-07
8.6649311236028724891e-07
9.3478582481660674332e-07
1.0806842813869444805e-06
1.2512593109161467933e-06
1.3620230187683868964e-06
1.4172385107462213079e-06
1.4718576441352740494e-06
1.5790827051889244464e-06
1.7257225485945293573e-06
1.8416177382933523346e-06
1.9000698578202180587e-06
1.9484752728392314989e-06
2.0491301870788671544e-06
2.1848511142257503186e-06
2.2687727373803811968e-06
2.3131635501807626099e-06
2.3802638113057839904e-06
2.4916490034856099019e-06
2.6029722909758776332e-06
2.6741350682859643499e-06
2.7210222031941378803e-06
2.7969204265562232868e-06
2.9304468477130892284e-06
3.0898826778122969742e-06
3.217188094148355378e-06
3.2886942510996703253e-06
3.3407223257643422388e-06
3.4266237248338400092e-06
3.551775800505457504e-06
3.6722561289082959475e-06
3.7494765177863605065e-06
3.7856443611062349778e-06
3.8130964511593983743e-06
3.8641559274202012881e-06
3.9726634946725992382e-06
4.100006814798895292e-06
4.2167111078464531096e-06
4.3053270430814481932e-06
4.3645805723188637937e-06
4.4164631547216271209e-06
4.490309877354935772e-06
4.5943454773917153695e-06
4.7110502288778505092e-06
4.8143758041847403416e-06
4.8888042713513251564e-06
4.9369247473030550413e-06
4.9750431730559817057e-06
5.0239949768765919372e-06
5.0906276914114367106e-06
5.1650042348799372129e-06
5.2345005839945044784e-06
5.2980958913862789581e-06
5.3655266547315298825e-06
5.4448866493850657451e-06
5.5314014400037221026e-06
5.6075696500776425537e-06
5.6567974631361431811e-06
5.6815386149900597946e-06
5.7037812741417297555e-06
5.752052583298497798e-06
5.8582212926033422351e-06
6.0074555450779453162e-06
6.1624721771200254692e-06
6.2876967892652662153e-06
6.3679119727805250486e-06
6.4106467882562740297e-06
6.434166682357343934e-06
6.4588240978818294385e-06
6.5007394799209704847e-06
6.567383476755190639e-06
6.6545771225369829008e-06
6.7479748265686720563e-06
6.8313517871384882524e-06
6.8931247163224836482e-06
6.9295414014805362341e-06
6.9459917409165135456e-06
6.9561933618217773335e-06
6.9779172090604796262e-06
7.0365148933931647582e-06
7.1474173874552954865e-06
7.2676336198832594559e-06
7.3747502738988320056e-06
7.4529280016011711213e-06
7.5028761055486645532e-06
7.5336640811757712053e-06
7.5581431082638336034e-06
7.5863075218415629891e-06
7.6265711235778419887e-06
7.6862348306866401878e-06
7.7716474292069617503e-06
7.8855344310563888854e-06
8.0271512652099097129e-06
8.1869494894509482421e-06
8.3420463797558529456e-06
8.461821200933240423e-06
8.5263481895367150174e-06
8.5395793016309460866e-06
8.5288102105978840932e-06
8.5081672687841902774e-06
8.497430719158900308e-06
8.5066846929361130368e-06
8.5907465588355686565e-06
8.7867428839002358282e-06
8.9289793260032824081e-06
9.0156664048884177352e-06
9.0665926036456247103e-06
9.098277971958342836e-06
9.1207314605072278547e-06
9.1405138447490183343e-06
9.1616393147534609789e-06
9.1887337726035871129e-06
9.223666269446552195e-06
9.2626764919157914951e-06
9.2990873265236031748e-06
9.3231314696420376932e-06
9.3312412034903992336e-06
9.3265909342486170123e-06
9.316646549356654298e-06
9.3035845753473764817e-06
9.2970729059549557098e-06
9.3101376254448731654e-06
9.4026305537018063527e-06
9.5708509517377425937e-06
9.6868309369193760595e-06
9.7565273516906354085e-06
9.7974326265679110014e-06
9.8284991173291774149e-06
9.8610639487544941742e-06
9.9012563417918050124e-06
9.9511406864223169648e-06
1.0010702456114391954e-05
1.0079984271925803899e-05
1.0155127068440959333e-05
1.0227008921236469728e-05
1.0283042650457219889e-05
1.0314078937254976607e-05
1.0321298240413569915e-05
1.0315792184996095502e-05
1.0299649626808600366e-05
1.027117982205922781e-05
1.0256821964308652289e-05
1.0251427547970708111e-05
1.027227724181142688e-05
1.0373382738725728011e-05
1.0499244610411694468e-05
1.0590265293939679135e-05
1.0648229437464116373e-05
1.0677283543274444127e-05
1.0691340310679646881e-05
1.0715078140076953812e-05
1.0767218844385960909e-05
1.08487723008252372e-05
1.0952038081639732531e-05
1.1062117463753366208e-05
1.1160574276030866509e-05
1.122816076188032281e-05
1.1257526985529664264e-05
1.1257721466818069883e-05
1.1245685424992662714e-05
1.1207195509644607897e-05
1.1137185095101194708e-05
1.1091614092736742174e-05
1.1068414663061491331e-05
1.1055994088142042606e-05
1.1048049053213998528e-05
1.1051624102964215473e-05
1.1087974874157835792e-05
1.1169464114084611401e-05
1.1269497807967436605e-05
1.1382337379593670591e-05
1.1497003178300775982e-05
1.1602751526840504682e-05
1.1696655489945814743e-05
1.1778247563025177211e-05
1.1845106634618359065e-05
1.1893814106553657665e-05
1.1920566187815350641e-05
1.1926574438688052594e-05
1.1920289123380196314e-05
1.1908289686282493158e-05
1.1873685203505591562e-05
1.1791538599323900778e-05
1.1725522712743503522e-05
1.1689523673744526143e-05
1.1674096507699396687e-05
1.3431608719011129422e-05
1.3236737821628995356e-05
1.3138335525969006612e-05
1.3111268035754172225e-05
1.3117004159592705688e-05
1.3210186596520628204e-05
1.343810077422746115e-05
1.359012070951762794e-05
1.3660433402703677218e-05
1.3679367047310404809e-05
1.3677185863352210024e-05
1.3671066880966183793e-05
1.3664384554287966288e-05
1.3656684751913387283e-05
1.3643922269686232349e-05
1.3612377384893984422e-05
1.3516030162966644794e-05
1.3295825382923036996e-05
1.3097721313659118367e-05
1.2955368692657301819e-05
1.2868183767662412774e-05
1.2824821856618521344e-05
1.2807922581685697182e-05
1.2800931525089719872e-05
1.2802978616609098431e-05
1.2827881457470938887e-05
1.2855203417939046323e-05
1.2869270502266058669e-05
1.2873022528617873917e-05
1.2868968231075220344e-05
1.2860098690515394168e-05
1.2848838270324229634e-05
1.2831858369221671895e-05
1.2796570488036282764e-05
1.2731780672788460613e-05
1.2670881433408992379e-05
1.2618451159909956422e-05
1.2575696375707678894e-05
1.2542018714768868177e-05
1.2517259136636794701e-05
1.2500426217036755635e-05
1.2490049092309394506e-05
1.248423553802948077e-05
1.2483902759378487753e-05
1.2493437831985218124e-05
1.2521904585891660073e-05
1.255133904869968287e-05
1.2573370417345552512e-05
1.2587694107510007536e-05
1.2594318372247471688e-05
1.2595417150582106762e-05
1.2593011715080704242e-05
1.2589446574085410435e-05
1.2585788373681789439e-05
1.258237822292964407e-05
1.2578720787952917643e-05
1.2575266380625396744e-05
1.2571698192522443632e-05
1.2568747139442062728e-05
1.2568988492592811715e-05
1.2579899582155505935e-05
1.2600540091304092188e-05
1.2620888392337636623e-05
1.2640459358987826439e-05
1.2657898689592557334e-05
1.2672393533306482082e-05
1.2683203817192393944e-05
1.2689600102425081969e-05
1.2691831126762418395e-05
1.2690277658764234972e-05
1.2686136882060453727e-05
1.2680341509914561031e-05
1.2673906697734297044e-05
1.2666838398441426303e-05
1.2658569260831308736e-05
1.2649478278260299104e-05
1.2640568504950353004e-05
1.2631755311501379247e-05
1.2623282011485889421e-05
1.26184833558238262e-05
1.2627058626043455579e-05
1.2645978755273109509e-05
1.2662923050927481485e-05
1.2677910543909564318e-05
1.2690802852117399058e-05
1.2701116719967428956e-05
1.2708720667624110479e-05
1.2714001922200832926e-05
1.2717212230937510972e-05
1.2718529268034925862e-05
1.2718446413864706901e-05
1.2717263927924386851e-05
1.271471789354842419e-05
1.2710694267141400054e-05
1.2705529978665153643e-05
1.2699263795920633934e-05
1.2691846343418404047e-05
1.2683527494706914833e-05
1.2675021063895146586e-05
1.2666501776607210248e-05
1.265830279160712194e-05
1.2650579221139273775e-05
1.2643342508913913154e-05
1.2636541006975198287e-05
1.2629993483185020332e-05
1.2623453450513131549e-05
1.2617097989462001506e-05
1.2611251161919055351e-05
1.2606867348482640308e-05
1.26042550313163505e-05
1.2604316300234413839e-05
1.2607597946907206341e-05
1.2613618455510319091e-05
1.2621714305075976644e-05
1.2631105529279672609e-05
1.2640374434335256845e-05
1.264822785255092728e-05
1.2653517361297295687e-05
1.2655447914810276746e-05
1.2654093187201645996e-05
1.264981103970491047e-05
1.2643316931837382956e-05
1.2635414961937653329e-05
1.2627232891431740294e-05
1.2619020175471332151e-05
1.2610549360340060136e-05
1.2600770781568890527e-05
1.2587458500947600314e-05
1.2572577214559108079e-05
1.2556559806439342728e-05
1.2540733902845212255e-05
1.2524268174724034077e-05
1.2508448451288305513e-05
1.2492382778190879746e-05
1.2477113755718575707e-05
1.2461563582299485937e-05
1.2446771298843088162e-05
1.2431481777603924085e-05
1.2416792910448205971e-05
1.2401438446289254433e-05
1.2386493898205041696e-05
1.2370857703179494744e-05
1.2355644320959378911e-05
1.2339922354040261797e-05
1.232487683518999063e-05
1.2309521306359935263e-05
1.2294859705176235855e-05
1.2279890456716805919e-05
1.2265511246671679399e-05
1.2250805456563519983e-05
1.2236711799797185277e-05
1.2222378317138147771e-05
1.2208824785991366851e-05
1.2195079423275776069e-05
1.2182225531987431609e-05
1.2169097444223478345e-05
1.215667372967957951e-05
1.2143824664648840146e-05
1.2131311064007694987e-05
1.2118060830289867876e-05
1.2104811066159520695e-05
1.20904541618736236e-05
1.2076087800530500217e-05
1.2060625076728936331e-05
1.2045461782288015531e-05
1.2029777599093289831e-05
1.2015008997103252973e-05
1.2000276729923551236e-05
1.1987095741450866829e-05
1.1974043801375022151e-05
1.1962571747872303049e-05
1.1950683128298365221e-05
1.1939757737774305766e-05
1.1927745978569478759e-05
1.1916088525577616246e-05
1.1902995372507003374e-05
1.1890023833759711511e-05
1.1875456214052494696e-05
1.1861035124300073663e-05
1.1845056102874379933e-05
1.1829413245216203741e-05
1.1812573310050634092e-05
1.1796594129521527545e-05
1.1779934247161793354e-05
1.1764585324834765054e-05
1.1748902117009440418e-05
1.1734707623146456104e-05
1.1720177451533996335e-05
1.1707150417527264813e-05
1.1693643757316527277e-05
1.1681365687876397273e-05
1.1668441667213423093e-05
1.1656402202446134001e-05
1.1643298093067533665e-05
1.1630873236686086313e-05
1.1616993070420296444e-05
1.1603689371155148538e-05
1.1588875565503585122e-05
1.1574736107830124596e-05
1.1559248215827900482e-05
1.1544682037801364888e-05
1.1528942192132509423e-05
1.1514416879989943667e-05
1.1498802411852512704e-05
1.1484420634766237646e-05
1.1468939980115099258e-05
1.1454738058247168855e-05
1.1439337947567838617e-05
1.1425437199163609349e-05
1.1410601846217530543e-05
1.1397415958843201819e-05
1.1383356273923761663e-05
1.1371087946851343037e-05
1.1357607531474849853e-05
1.134562466725854671e-05
1.1332286298030778599e-05
1.132016129133067566e-05
1.1306533894071793244e-05
1.1294319252865858648e-05
1.1280627035713174599e-05
1.1268587383803359571e-05
1.125510951149489204e-05
1.1243436195068817941e-05
1.1230074537787469293e-05
1.1218219944306580973e-05
1.1204458798436606393e-05
1.1192071439987872725e-05
1.1177509955691145778e-05
1.1164377902437954876e-05
1.114905240533141323e-05
1.1135347196293504145e-05
1.111968792100129272e-05
1.1105929102059556316e-05
1.1090380242543835653e-05
1.1077079957153917144e-05
1.1061980085834312841e-05
1.104926714228864411e-05
1.1034660444527263261e-05
1.1022325853859730804e-05
1.1007910246022768451e-05
1.0995690885768805533e-05
1.0981060774362019338e-05
1.0968748016656648968e-05
1.0954051315392245261e-05
1.094169617831639825e-05
1.0927154281083677355e-05
1.0915218545003616777e-05
1.0901101758524466215e-05
1.0889492698397228035e-05
1.08755919754187137e-05
1.0863986600596056418e-05
1.0849888089221883215e-05
1.0837971983180389162e-05
1.0823338790262870417e-05
5.9926892978468038845e-07
7.1110730556384557095e-07
8.0489511406205582935e-07
8.7154966511606256679e-07
9.8145544217146931128e-07
1.168621171694577556e-06
1.3001021134603515974e-06
1.3613889272180450893e-06
1.4295955839403501515e-06
1.5576188302343715135e-06
1.6926573200899285188e-06
1.7812334928415026004e-06
1.8292965734179192386e-06
1.8902537900497655275e-06
2.0219064943637923048e-06
2.2049412759965852589e-06
2.3430984504711109898e-06
2.4136613685433342747e-06
2.4492085007804719443e-06
2.5027094382532767426e-06
2.6170227641463809371e-06
2.760343177092900764e-06
2.8801770851462103409e-06
2.9520052279653734809e-06
2.9862169417483415743e-06
3.0193498410807238281e-06
3.092701764557299497e-06
3.2751463121472448833e-06
3.440225091500055822e-06
3.548821727714162649e-06
3.6431255334862211393e-06
3.7323323579154496949e-06
3.8032790378006817702e-06
3.8645483845624004228e-06
3.9430604332758340899e-06
4.0502775185994748346e-06
4.1673476292336190778e-06
4.2640592909179523621e-06
4.3244262824657189284e-06
4.357046166549662474e-06
4.3899531008671948933e-06
4.4601940651742237186e-06
4.6145593891858498317e-06
4.7904415846689840631e-06
4.9449345107704746263e-06
5.0682567065420753622e-06
5.1662365608751428331e-06
5.247115246703179387e-06
5.312912537649136025e-06
5.3602339627130426067e-06
5.3864197856005021964e-06
5.4005111414479862756e-06
5.42189774195857944e-06
5.4753010698941240349e-06
5.5597647801181046011e-06
5.6522203460046474278e-06
5.7466238718970104817e-06
5.8318869272834338754e-06
5.8939717551135769038e-06
5.9284215417869638736e-06
5.9489737865225622741e-06
5.9819463186715988163e-06
6.0596788497647991928e-06
6.2104009980298090928e-06
6.393626126053743586e-06
6.564321429175834407e-06
6.6887603394117940009e-06
6.7584776645377727902e-06
6.7865132533658706481e-06
6.7971555272632875317e-06
6.8137678143282356613e-06
6.8523143053627411507e-06
6.9191118677964857453e-06
7.009192442469445204e-06
7.1072336919960495851e-06
7.1949911461980028485e-06
7.2590410602819651484e-06
7.2957680647299728616e-06
7.311113719632488478e-06
7.3184173705456978046e-06
7.3329428226100740336e-06
7.3738095280027590703e-06
7.4721277624114671275e-06
7.5823967061298901105e-06
7.6823726788995461471e-06
7.7636367533422702403e-06
7.8259146951388510941e-06
7.8739959127514358683e-06
7.91845754104433763e-06
7.9711364352481060472e-06
8.0389688065409823173e-06
8.1246129890376070988e-06
8.22676698616833175e-06
8.34293272701765557e-06
8.4681279364447151501e-06
8.5937349815673411146e-06
8.7066657213939140076e-06
8.7923906986561055962e-06
8.8393109001231250869e-06
8.8504778065116701243e-06
8.8428316186618406139e-06
8.8333731880757075232e-06
8.8325513729432619613e-06
8.8745169714474639522e-06
9.0669568444592065393e-06
9.3490112174401133533e-06
9.5335221374860863887e-06
9.6321197519214717228e-06
9.6729588313202172288e-06
9.682864521340330658e-06
9.6810996053332088818e-06
9.6774279365362019174e-06
9.6739152942964357307e-06
9.6715976317419384502e-06
9.6765528747468354802e-06
9.6990113568481670407e-06
9.7185471323433283682e-06
9.7287805184104228078e-06
9.7291989042052871194e-06
9.7234115535461454856e-06
9.7130899545264970418e-06
9.701242570278605673e-06
9.6948310353222671786e-06
9.7110032989675095828e-06
9.817793525465957441e-06
1.0022151966473581182e-05
1.0172612125781251163e-05
1.0270899949099877805e-05
1.0332536942023911033e-05
1.0375228845854748275e-05
1.0411850116496760359e-05
1.0451341609506145227e-05
1.0497637615241951417e-05
1.0552597748548709074e-05
1.0616129927417147338e-05
1.0684271665426026604e-05
1.0748863456977873396e-05
1.079868932073487208e-05
1.082596665249109523e-05
1.0831676595616103708e-05
1.0825491029601975635e-05
1.0811032132151906471e-05
1.0782293164202145537e-05
1.0767435001109457664e-05
1.0762225190914931277e-05
1.0779962406360373047e-05
1.0882728997139977332e-05
1.1046001705584791055e-05
1.1163724753854852598e-05
1.12458156297532967e-05
1.1307400042305939286e-05
1.1359631060648264024e-05
1.1409531029044489976e-05
1.146192021197881015e-05
1.1519673914656414148e-05
1.1584202109805094555e-05
1.1650751763758522182e-05
1.1710153287903688209e-05
1.1750327259581053443e-05
1.1766042896610436579e-05
1.1762928650161789243e-05
1.1751457527476565976e-05
1.1717620775309267744e-05
1.1647617636776057626e-05
1.1596709600378873984e-05
1.1567745011060812861e-05
1.1552288682368202409e-05
1.1543282320777012448e-05
1.1548306485801983239e-05
1.1599729012957018354e-05
1.1711160410353403275e-05
1.1820991146781315739e-05
1.1927458095565669644e-05
1.2030537368653987655e-05
1.2132196031934422363e-05
1.2233547280993047282e-05
1.2334804250747934332e-05
1.2430542533923547821e-05
1.2509877807585190429e-05
1.2562501902630578672e-05
1.2585444478219945245e-05
1.2585839163892675031e-05
1.2576507030478623674e-05
1.2554611734551020811e-05
1.2487418437084051861e-05
1.2406783165063542903e-05
1.2358589706531684555e-05
1.2336961694620871721e-05
1.2329073259305362072e-05
1.4405021212293161082e-05
1.4253147401952892859e-05
1.4014144710161605397e-05
1.3875158154008344311e-05
1.382623365507374319e-05
1.3819026878750320043e-05
1.3859217891976419778e-05
1.4025076723206843894e-05
1.4188088117453743413e-05
1.4284326470665579287e-05
1.433887516767405894e-05
1.4375002573095398278e-05
1.440371007487822553e-05
1.4422864672842390543e-05
1.4427582790374957113e-05
1.442020435677673741e-05
1.4400927854269114309e-05
1.4340110009098293436e-05
1.4154806127977435657e-05
1.392103023787358202e-05
1.3751853214558923484e-05
1.3647002591766711069e-05
1.3593173859230782465e-05
1.3571448697760779719e-05
1.3563408552083706466e-05
1.3561871864931871894e-05
1.3576663552041618002e-05
1.3593796982431449402e-05
1.3600102259516874185e-05
1.3597703889590362778e-05
1.3589451614811011283e-05
1.3578225448679006872e-05
1.3562783067463841664e-05
1.3534432380468534263e-05
1.3473514104374170202e-05
1.3406226731503070813e-05
1.3348516252392297649e-05
1.3300427410847059066e-05
1.3262389425822222858e-05
1.3232684303211886856e-05
1.3211035073707685735e-05
1.3195944086133335889e-05
1.3185983970145346325e-05
1.318033166302463089e-05
1.3180327557110823832e-05
1.3190049506835075952e-05
1.3210356329937777338e-05
1.3229095130468245759e-05
1.3243947121864223153e-05
1.3253878469043761104e-05
1.3259097448577977893e-05
1.3260186881752282847e-05
1.3258555230777129021e-05
1.3255638409594146679e-05
1.3252502383777373408e-05
1.3249402627898065879e-05
1.3246217899466534881e-05
1.3242826942648768134e-05
1.3239605720495315055e-05
1.3237773681010611891e-05
1.3240884128656359647e-05
1.3254991957794996836e-05
1.3273252494042424787e-05
1.3293072366329493028e-05
1.3313400082089092157e-05
1.3332227404033353515e-05
1.3347880103442885642e-05
1.3359301288586414199e-05
1.3365566200689443934e-05
1.3367064622428167622e-05
1.3364487069927909459e-05
1.335933467171653336e-05
1.3352807026144923261e-05
1.334579677645425142e-05
1.3338149092325665563e-05
1.3328625351668419867e-05
1.3317924166880849675e-05
1.330809293203208041e-05
1.3298521087003277775e-05
1.3289222337768001166e-05
1.3281770405337432246e-05
1.3282191553392928238e-05
1.3302603503215792673e-05
1.3328041286372139867e-05
1.3348900652079751154e-05
1.3365039867512184551e-05
1.3376244264265995017e-05
1.3382650446074448081e-05
1.3385057601737283532e-05
1.3384359101735363403e-05
1.3381227233593076265e-05
1.3376707877163961715e-05
1.3371569324528609666e-05
1.3365989210459222351e-05
1.3360079093301035157e-05
1.3354191086011850878e-05
1.3348552002511003686e-05
1.3342833648182310765e-05
1.3336945070418999631e-05
1.3331198477846352597e-05
1.3325444659237807717e-05
1.331960604584911933e-05
1.3313701796916605117e-05
1.3307648318041317856e-05
1.3301478389226104325e-05
1.3295135446695523343e-05
1.3288673220277300989e-05
1.3282546107732681758e-05
1.3277139162056149685e-05
1.32734157128415307e-05
1.3271692542091526751e-05
1.3272703677747094592e-05
1.3276767154072129676e-05
1.328326052865536751e-05
1.3291420597098721254e-05
1.3300424214953886703e-05
1.3308828545829518903e-05
1.3315572794853998341e-05
1.3319696916014776451e-05
1.3320381571508079733e-05
1.3318031651496999067e-05
1.331296374832337987e-05
1.3305934950145526075e-05
1.3297997427772977359e-05
1.329015097173561292e-05
1.3282507175902908081e-05
1.3274631569998224503e-05
1.326561217212959201e-05
1.3253322690107209548e-05
1.3239728773088562939e-05
1.3224367540119040694e-05
1.3208852972999394636e-05
1.3192044812341761274e-05
1.3175738502117143833e-05
1.315883050727728548e-05
1.3142889506455992385e-05
1.3126619440916660782e-05
1.3111467271180663789e-05
1.3095830422408803162e-05
1.3081096056832515741e-05
1.3065495046253354034e-05
1.3050395700187652196e-05
1.3034204005957766086e-05
1.3018363444371569326e-05
1.3001596041018627625e-05
1.2985436801482682775e-05
1.2968673466123116362e-05
1.2952790018671306535e-05
1.2936458146543215934e-05
1.2920976473540748516e-05
1.2904954169117060147e-05
1.2889682011995687744e-05
1.2873869145047974131e-05
1.2858991724480199162e-05
1.2843750238322310301e-05
1.2829765098741411952e-05
1.2815467102018150055e-05
1.2802312614676082675e-05
1.2788628936978223719e-05
1.2775523485326256207e-05
1.2761412389918587177e-05
1.2747350130070576757e-05
1.273180698322148158e-05
1.2716287857980732874e-05
1.2699399412496550937e-05
1.2683011554765670918e-05
1.266591504023650395e-05
1.2650025562357912275e-05
1.2634090169230771691e-05
1.2620011161791047901e-05
1.2605959593668113701e-05
1.2593769427878677861e-05
1.2581049812026957006e-05
1.256954757191594202e-05
1.255683008105927786e-05
1.2544650457456104901e-05
1.2530835581245801925e-05
1.2517236437250688847e-05
1.2501822865712760999e-05
1.2486659706900083862e-05
1.2469753800664791838e-05
1.245331556577289499e-05
1.2435420612785524168e-05
1.241847044532036991e-05
1.2400576793131591125e-05
1.2384126201765967033e-05
1.2367171552992450799e-05
1.2351894719669301997e-05
1.2336188387961213048e-05
1.2322201806227593875e-05
1.2307640303072611788e-05
1.2294488397151911898e-05
1.228046898642143228e-05
1.2267405856036638965e-05
1.2253019075417677125e-05
1.2239386853383307536e-05
1.2224114937794027175e-05
1.220960806138362321e-05
1.219346577868264542e-05
1.2178285792079794804e-05
1.2161719853610584419e-05
1.2146407297502035555e-05
1.2129846336763480609e-05
1.211473807997162301e-05
1.2098378967929611575e-05
1.2083391562906243828e-05
1.2067103273490043672e-05
1.2052224662220822638e-05
1.2035989286731807598e-05
1.2021404144486293053e-05
1.2005716321586073434e-05
1.1991883311481858022e-05
1.1977055110357525053e-05
1.1964256097499995332e-05
1.1950160000849421697e-05
1.1937780337431351112e-05
1.1923963301969725946e-05
1.1911535016774871007e-05
1.1897424480030704602e-05
1.1884789575160836412e-05
1.1870349257424889453e-05
1.1857503566413745094e-05
1.1842854783971441465e-05
1.1830022134542278388e-05
1.181530358912246527e-05
1.180234186741328262e-05
1.1787417524415293944e-05
1.1774231610353508314e-05
1.1758834529590478707e-05
1.1745196883145534266e-05
1.1729260491592530483e-05
1.1715109910738112582e-05
1.169876403915453376e-05
1.168439282717440982e-05
1.1667931297951110477e-05
1.1653768974771162962e-05
1.1637599826665005753e-05
1.1623934162796527593e-05
1.160824713438632259e-05
1.1595073227304145529e-05
1.1579697895197783836e-05
1.1566763032478673241e-05
1.155129577892353144e-05
1.1538238988683850668e-05
1.152264301907894421e-05
1.1509470385934494308e-05
1.1493889182606874662e-05
1.1481008161374693622e-05
1.1465763150778751007e-05
1.1453190270868454783e-05
1.1438171032439060351e-05
1.1425679330880949755e-05
1.141058663300689545e-05
1.1397969996070828869e-05
1.138250436626770797e-05
6.153130812056719625e-07
7.2152770879680995531e-07
8.464141780117827927e-07
9.9173640800422976988e-07
1.0864033061634417989e-06
1.1652649728323399729e-06
1.2776825359284047828e-06
1.4063573157461232149e-06
1.5232643586661350612e-06
1.6056384625683562515e-06
1.6866852520470028704e-06
1.8264884145409829064e-06
1.9925003894323192795e-06
2.1093707045861303957e-06
2.1731273886384377755e-06
2.2579838394459418326e-06
2.3813394725036233487e-06
2.5188604069757953832e-06
2.6396164934239786412e-06
2.7123215411228248155e-06
2.773013916885574261e-06
2.8621258383109932389e-06
2.9523380078284625988e-06
3.0083933342473366166e-06
3.0470422210180548873e-06
3.116491170530970741e-06
3.2926559660850065086e-06
3.5191166252814181884e-06
3.6377843825002708088e-06
3.6922004507733272426e-06
3.7807008333824908797e-06
3.9184053974567680537e-06
4.0404380471781699367e-06
4.1094293924207965353e-06
4.1565891213889049802e-06
4.2314062337342978417e-06
4.3417017511269579295e-06
4.4531791708480608448e-06
4.5294041958962246675e-06
4.5697073479891973951e-06
4.6120600920174987841e-06
4.7029270267855043659e-06
4.8539431789001579541e-06
5.0312031506039624353e-06
5.2010381296287512665e-06
5.3388792432989755452e-06
5.4341287118723379028e-06
5.4885441397658746678e-06
5.5157344880338823103e-06
5.5368966813756205849e-06
5.5729470526853170371e-06
5.6334401731926390792e-06
5.7154715217849438283e-06
5.8080867835833265445e-06
5.8992637713324540526e-06
5.983215224101479534e-06
6.057641521330122181e-06
6.1191939749778048353e-06
6.1641580041259172852e-06
6.195689249216445819e-06
6.2302785259218498959e-06
6.29527252108753604e-06
6.4076809897909458558e-06
6.5576792639700972736e-06
6.7143994478772760901e-06
6.8464133113569421258e-06
6.9382591450036257781e-06
6.9971941874820963049e-06
7.0424333686227670308e-06
7.0942229682965327617e-06
7.164762261477124128e-06
7.2543987254173355515e-06
7.3535979867122576082e-06
7.4485551175465529431e-06
7.5280370231817782571e-06
7.5868919285317118993e-06
7.6244007464819822477e-06
7.6441900285183742605e-06
7.6531255581977985055e-06
7.659974326227797411e-06
7.6747621744883288812e-06
7.7151534302267872455e-06
7.82987129283214786e-06
7.9897469353159132513e-06
8.1464201583223317272e-06
8.2836948538354216657e-06
8.3887793386040999347e-06
8.4571377929603987471e-06
8.4932576072482244027e-06
8.5081213068678512249e-06
8.5182397531108077117e-06
8.5418253487017669522e-06
8.6029721131237527868e-06
8.7616064493314093633e-06
8.9679003794217622007e-06
9.1566480329679395824e-06
9.2959849615231516823e-06
9.3702291301983370899e-06
9.3885515410159331825e-06
9.3797961672379211076e-06
9.3572393562616213699e-06
9.3380043426965356006e-06
9.3382630019490707278e-06
9.3971313188247226184e-06
9.6436137007920626484e-06
9.92024172877808539e-06
1.0078064202052742696e-05
1.0148933382365292813e-05
1.0169422567711891179e-05
1.0169725633987135939e-05
1.0165247535185913412e-05
1.0160658693644400595e-05
1.0159255267298927157e-05
1.0171280190797871851e-05
1.0212143758658734707e-05
1.0243704300256058692e-05
1.0257933453928006528e-05
1.0257767237686482846e-05
1.0251621953902856376e-05
1.0240270280986397608e-05
1.0217004950759495617e-05
1.0200337015369276403e-05
1.0192064365689724122e-05
1.0207767635712061141e-05
1.032317957484407037e-05
1.0540524960212966995e-05
1.0693258373464654588e-05
1.0787254619344494079e-05
1.0846518405831990484e-05
1.0893529609785901008e-05
1.094403287942433058e-05
1.1006360162804127654e-05
1.1082017910511090267e-05
1.1166639554480632822e-05
1.1252015856865145831e-05
1.1327886897137590978e-05
1.1383292347233724563e-05
1.1412478154111409983e-05
1.141818960558976669e-05
1.1410133082016758304e-05
1.1394838929867579232e-05
1.1354545699746790147e-05
1.131832231106400335e-05
1.1305793866382724016e-05
1.1304840434332296623e-05
1.1340416080716681115e-05
1.1470692362873146297e-05
1.1592902004776392587e-05
1.1670960460815309737e-05
1.1725557667188957678e-05
1.177690840886271477e-05
1.1838112436227914549e-05
1.1914456063678201058e-05
1.2006213881537594219e-05
1.2108535779491443082e-05
1.2211603574010679123e-05
1.2303585576804177752e-05
1.2370864539991103737e-05
1.2406307726980708708e-05
1.2412761799361994775e-05
1.2404758151283710015e-05
1.238041753194648673e-05
1.2305871580783790952e-05
1.2224823575792651641e-05
1.2178251787266891249e-05
1.2156551406873513646e-05
1.2146402138821068211e-05
1.2155261616403905967e-05
1.2232154619178399734e-05
1.2412843122836787573e-05
1.2557598042865689001e-05
1.2644831996524991932e-05
1.2689964925599463193e-05
1.272511655325565969e-05
1.277920203277258398e-05
1.2866670844396724499e-05
1.2984559161399990699e-05
1.3112007999903059832e-05
1.3223824177332489503e-05
1.3300071426523066818e-05
1.3334736648289276524e-05
1.3337300207524695181e-05
1.3325731502547186972e-05
1.3294674481531471697e-05
1.319463689701358743e-05
1.3065143760204605031e-05
1.2981068541665910434e-05
1.2938339032722369595e-05
1.2921842875049685564e-05
1.5119225700331725702e-05
1.4973629515108002319e-05
1.472454279202967116e-05
1.4580163669102546889e-05
1.453134008225957285e-05
1.4525399639688060899e-05
1.4578870024754539468e-05
1.4787022542493876828e-05
1.4980944731867506321e-05
1.5087614920201077248e-05
1.5138925076074168669e-05
1.5166430674234600447e-05
1.5187379914440705568e-05
1.5202219959648090306e-05
1.5205417926353516982e-05
1.5197375902488081988e-05
1.5177994304082718564e-05
1.5120751355817141969e-05
1.4945364114937489434e-05
1.470241909703891372e-05
1.4521665660572802398e-05
1.4405052607505029074e-05
1.4340695669845416002e-05
1.4310738437980436016e-05
1.4298085026573002597e-05
1.4291179674973252954e-05
1.4286581936045274175e-05
1.4288379507275813997e-05
1.4294284867305927906e-05
1.4294522895032981598e-05
1.4289703133559448312e-05
1.4280362617831268734e-05
1.4268208942629414585e-05
1.4253645122268003117e-05
1.4229128963743572941e-05
1.4173861911133398738e-05
1.4106180195052601576e-05
1.4051223204798331235e-05
1.4008761504834625329e-05
1.3976715911248368865e-05
1.3953148195178952538e-05
1.3936064273410876798e-05
1.3923766998297685841e-05
1.3915817057908211771e-05
1.3911597746721341735e-05
1.3910162094765758612e-05
1.3910705595176540866e-05
1.3912543692531657895e-05
1.3917562280406677378e-05
1.393142040109608226e-05
1.3944709399722540681e-05
1.3954380753900895481e-05
1.3961888407271909519e-05
1.3968016404005182711e-05
1.3973401224741134461e-05
1.3977601330230269474e-05
1.3980420152831298731e-05
1.3982045539619710739e-05