/*--------------------------------*- C++ -*----------------------------------*\
  =========                 |
  \\      /  F ield         | OpenFOAM: The Open Source CFD Toolbox
   \\    /   O peration     | Website:  https://openfoam.org
    \\  /    A nd           | Version:  12
     \\/     M anipulation  |
\*---------------------------------------------------------------------------*/
FoamFile
{
    format      ascii;
    class       volScalarField;
    location    "0.009";
    object      k_0;
}
// * * * * * * * * * * * * * * * * * * * * * * * * * * * * * * * * * * * * * //

dimensions      [0 2 -2 0 0 0 0];

internalField   nonuniform List<scalar> 
75962
(
3.4030812826960094985e-05
5.1633340821023582788e-05
7.0016661832807499831e-05
8.0224056934378120309e-05
9.3650112486114240533e-05
0.00012561381378563849041
0.00016873051786270111866
0.00020016102155590416662
0.00021695972429962965297
0.00023432269587386709837
0.00027020441258086174471
0.00032327002553920639689
0.00036829209114594223771
0.00039174348120529133227
0.00041206428723740564464
0.00045695798597025647165
0.00052142970054150708514
0.00056373747953900889794
0.00058667331717748058117
0.00062169213591821491198
0.00068226257064161566039
0.00074616432814242231262
0.00078908616544820899333
0.0008179976172482147749
0.00086481063374493612281
0.00095005012851478391062
0.0010574599137979320308
0.0011478147798885322654
0.0012010474293892340301
0.0012417580492596648478
0.0013099909111271821911
0.0014116059415235691996
0.0015124878665863808556
0.0015781803285521696194
0.0016079912957365606954
0.0016305595418786222265
0.0016759051240923731989
0.0017750703438778527455
0.0018955020312743662073
0.0020098037830702216236
0.0020995939833550326774
0.0021616237294875195393
0.0022170402466316790381
0.0022957320972136117075
0.0024074323885425680594
0.002535805132457111602
0.0026537628207710796217
0.0027425653466856166063
0.0028018332605796439014
0.0028480572847139609335
0.0029059655427814069968
0.0029865080369784000741
0.0030799640284371611852
0.0031703634081146877047
0.0032540934971845517781
0.0033420863931800447004
0.0034452339195179134367
0.0035591320188733881029
0.0036622675840698747964
0.0037324132142610840987
0.0037713435256077091837
0.0038069692025556097631
0.0038765991052533864056
0.0040249894742272205109
0.0042370281008280294074
0.0044649137141338085533
0.0046568272939075611508
0.0047859796737294109034
0.0048596736738162034722
0.0049043600157939624615
0.0049503131326877076318
0.0050219312494651146758
0.0051313445495620967074
0.0052737157226119381684
0.0054290940101194484421
0.0055720573511977159256
0.0056818300579966488431
0.0057504000786334722589
0.0057861076987542180844
0.0058116589990292923801
0.0058564873930652449133
0.0059634537073922581213
0.0061610032882156414227
0.0063784209112387295348
0.0065768292847111732222
0.0067265755872765705184
0.0068273954255314043757
0.0068950139421520778918
0.0069522512968252436413
0.007016634321733779267
0.0071030265634346688441
0.0072252183199294529869
0.0073961207024218879671
0.0076226587197630556181
0.0079061487765909009562
0.0082310537153714793956
0.0085541910720810920149
0.0088131034814737854027
0.0089636897748340913644
0.0090104104827832109254
0.0090072764118386619558
0.0089817169665039209986
0.0089747446200354810686
0.0090084180295528937937
0.0092010695769989079423
0.0096396318200869142434
0.0099678734450275065238
0.010175557496380792377
0.010303559531549485312
0.010387487287307454673
0.010448703178711268164
0.010502169326570052685
0.010558708871217714273
0.010631778527944861154
0.010728050412801049679
0.010839287077026532255
0.010947923542361882865
0.011027569672970404316
0.011067052706087545169
0.011073014316436586083
0.011064988661163437794
0.01105018866064615829
0.011053179296434357745
0.011105344361581167417
0.011350697978054142753
0.011786175686642762911
0.012099806867681644693
0.012299203454082866666
0.012423063112293013244
0.012516639240491600135
0.012609515337753271491
0.012720924201422820904
0.012860574279115610449
0.013031354959830090609
0.013233824595304487931
0.013456561145116311892
0.013673320462610343354
0.013847778620847149555
0.01395269706263796948
0.013989973633926124433
0.013990485014881922504
0.013962209899423698445
0.013902984761214430207
0.01388558082938344887
0.013895641048423813813
0.013978987085110569644
0.014283203154823335967
0.01465917319077594469
0.01494022808500025494
0.015128139580576674059
0.015232934106631876997
0.0152937448098967501
0.015381550304301968082
0.015551417205162156032
0.015808803441449574556
0.016133778111459853161
0.01648366953171816543
0.016802517164973874292
0.017029572246479583036
0.017140095639886457346
0.017161091183222662582
0.017145182642658598343
0.017050114570771723183
0.01686179533639211095
0.016750611433650853394
0.016709625601479982659
0.016702929765754017527
0.016710044076963279785
0.016750616549337730976
0.016888160872631417797
0.017161451534876245167
0.017491709293598858149
0.017863704836399010162
0.018245514366474507861
0.018605010131747281438
0.018933569389783067721
0.019229256636544657388
0.019482073018769145017
0.019677428953917781851
0.019799273628460963004
0.019849341284052361006
0.019855163921307785596
0.019839278645599967704
0.01974703972075226438
0.019498645213782153651
0.019308232453091423581
0.019221959823215475222
0.019207473056974413983
0.026821550207807031557
0.026104310336393394404
0.025770553992119128034
0.025713320116994762415
0.025779876301843682174
0.026187161012378241259
0.027134819256635071827
0.027784679538966756268
0.028101240646629312148
0.028203659074730845491
0.028216486524656459595
0.028212289468266805309
0.028207315718082458245
0.028202263833757235112
0.028182503231494789725
0.028092498112392234877
0.027742950651771208781
0.026896817096453945473
0.026152889737587444591
0.02563752253752123525
0.025340037045643065
0.025210994222636784468
0.025180622445231604783
0.025184226010326722645
0.025219585020940980813
0.025342936754736845872
0.025475706373790318882
0.025557481356287603536
0.025601238494864196615
0.025617689092491721659
0.025618858436671502338
0.025613573634624201003
0.025587382690625447984
0.025488736284152144207
0.025272811063682152494
0.02507328277930691296
0.024909036961310252606
0.024785126435271344347
0.024698367385234211435
0.024645986660699253923
0.024620669941428800775
0.024613083829612310283
0.024613396444752660974
0.0246249884412350524
0.024667483612314636959
0.024781158105338211423
0.024899886294869742753
0.024993880880147475304
0.0250630562931918148
0.025106375734161811425
0.025129923203102533247
0.025139012067558318825
0.025141263586514459027
0.025140636269882197379
0.025139438665148863133
0.025137329329173455778
0.025137532345634500813
0.025139472473671948399
0.025146136449485177733
0.025167583610878722922
0.025233713410658220599
0.025341225993403358047
0.025450509756466999783
0.02556013882496010331
0.025664759594062405701
0.025760553839190618308
0.025843372221204578831
0.025908729769015405309
0.025956144591110435343
0.025986062590250973842
0.026002901161918487438
0.026010552090637177602
0.026013794452893840292
0.026013575302968872799
0.026008669748369753205
0.02600179198611875242
0.025998003591093870462
0.025997392787331475433
0.026000713090451977455
0.026020852954790982953
0.026096634469357980063
0.026214570484657032795
0.026322893018570867052
0.026421252588523447963
0.02650927339030267893
0.026585494562340269281
0.026649817030961572839
0.026704077908414777104
0.026749401209636414906
0.026786649255398829739
0.026818301138884746704
0.026846376607594094749
0.026870649644806503253
0.026891339401271415616
0.026910131084483916719
0.026926882042354674529
0.026940540082697504026
0.026950928715659360629
0.026959729896035893038
0.026966563920690238276
0.026972232181166035797
0.026977458627589538664
0.026983115107508590796
0.026990412533585275007
0.027000205482740385204
0.027012683224269369575
0.027028970030779440881
0.027049787403344106862
0.02707774694452769193
0.027112406900808898313
0.027156197935436166002
0.027210799497931214413
0.02727443088579721911
0.027345371102841235789
0.027421770965655498098
0.027498833180380950064
0.027571751315921683156
0.027635668343018705839
0.027686626812057430619
0.027724005779986540116
0.027748245794212606646
0.0277614944575518309
0.027766707984913346907
0.027768815596080936858
0.027769384497162201419
0.027768239724827649406
0.027761720220146085536
0.027740820525762911741
0.027714589002454777245
0.027684841538880598094
0.02765693669389886547
0.027626524009216096162
0.027598597229679638909
0.027568688089331827573
0.027541109446950606116
0.027511098329163687082
0.02748349318116034834
0.027453182608795412972
0.027425462663303069866
0.027395143422588249388
0.027367211364156106973
0.027336851114250059619
0.027308843864172694521
0.027278828100669252205
0.027251764418052989297
0.027223205927755317335
0.027197712376949702978
0.027170930270818721003
0.027146850935437557423
0.027121383696315757433
0.027098509469068825239
0.027074163458124921727
0.027052596511122590367
0.027029311808556978625
0.027009034277097193621
0.026986714013505920529
0.026966993416481826323
0.026945268909566309073
0.026925432341462052221
0.026903288411316700346
0.026882604654453107207
0.026858775810101324227
0.026836763473496057925
0.026811443563185221456
0.026788289989460513374
0.026762599771996818665
0.026739610066082990236
0.026714410075792095756
0.026693049824534242909
0.026669056983150130763
0.026649383533841938115
0.026626096844229181493
0.026606531717379616753
0.026582706322590639314
0.026561946061808120595
0.026536830188186030094
0.026514536963652832885
0.026487412165045680357
0.026463109245944829023
0.026433794649988767711
0.026407524040517056652
0.026376857396826471069
0.026350223540627288471
0.02631992420066745289
0.026294101434604717077
0.026264828674267270969
0.026239939551914705229
0.026211264211469138818
0.026187280527648789524
0.026159540858110407607
0.026136185243035136433
0.026109331625200876692
0.026086334209305839238
0.02605897878285988109
0.026035578836363027638
0.026007003678754522097
0.025982581035850226686
0.02595297450758625793
0.025927749119130177879
0.02589744171419751731
0.025871743229930996982
0.025840823985173400068
0.025815108379240239711
0.025784175460931441776
0.025758483508655474065
0.025727669448324323731
0.025702431432999037209
0.025671526818098235057
0.025646750346722053254
0.025616779310282181137
0.025592902038018530003
0.02556368165406675691
0.025541246609142680829
0.025512514555919199588
0.025490183531132259293
0.025461899113069411116
0.025439484643636843531
0.025410769961122736671
0.02538866814020908011
0.025359878073176439495
0.025338190259790359382
0.02530957662970246061
0.025288718343893155233
0.025260220891024774692
0.02523889903772208454
0.025209826443767995724
0.025188096363800826366
0.025157933998447720714
0.025135577820260282533
0.025104528963233348204
0.025081580284620579729
0.025050143090399424467
0.02502710409505549613
0.024995463694156686008
0.024973200807320225514
0.024941977722309313648
0.024920710233278534074
0.024890238024729439276
0.024869583997937188408
0.024839375113057310385
0.024819151743099291535
0.024788264694202089
0.024768066385123171241
0.024737198996213908414
0.024716788687267982061
0.024686152939295592096
0.024666787261349305826
0.024637029857424809498
0.024618199052221852174
0.024588848225079441151
0.024570024318479620484
0.024540335700021675969
0.024521088972484013369
0.024490141589963050628
3.6402234495858442145e-05
5.1280869288032416089e-05
6.5641211197443787646e-05
7.676860613156934166e-05
9.7807296753507706375e-05
0.00013973026126631610949
0.00017356580601850111123
0.00019023830173659831669
0.00020982226782228602076
0.00024938937314545917305
0.00029480877486692645554
0.00032683505681259118194
0.00034489298839109451891
0.00036808313008765056445
0.00042141826947663627327
0.00050283257810508608619
0.00057013542801862427539
0.0006064650714723705989
0.00062487376356593245241
0.00065285576855581928333
0.00071476508013273792018
0.00079667962810827232332
0.00086916687960423904755
0.00091472089455196694922
0.00093716063079357701891
0.00095879109441197808879
0.0010067063938893837903
0.0011299359817514213582
0.0012481561359108828569
0.0013308900046197216435
0.0014067334497730584961
0.0014812818851762286302
0.0015419338669250698143
0.0015934010012825937548
0.0016579364276654315422
0.001748399544541481658
0.0018521816449425512405
0.0019426817218725785617
0.0020027834707815632062
0.0020379436351122787001
0.0020730676111026381629
0.0021435363563962243037
0.0022983636123421985302
0.0024816029374858466182
0.0026493289667961525229
0.0027882103286572200961
0.0029026203147563675241
0.0030003698862094943696
0.0030816191439477034347
0.0031401168604921225226
0.0031726983302926728241
0.0031923780462828183456
0.0032233431311097910342
0.0032941952450811734336
0.0034030517452820472669
0.0035220399315864341083
0.0036444628846520892192
0.003757254871661944249
0.0038424137414838350872
0.0038933544956842908343
0.0039270497347264820762
0.0039772544462038927904
0.0040868179270858329827
0.004297337603459449977
0.0045602439655341381677
0.0048148613002643187581
0.0050088367832585778058
0.0051238026101699208834
0.0051764650083283248946
0.0052029385669059360908
0.0052375969554765457181
0.0053036212719270543411
0.0054111156610862423677
0.0055555791515033746755
0.0057169967386238992532
0.0058673125393768231148
0.0059826510775334530365
0.0060538443132901794547
0.0060889671511800561379
0.0061100357513989697264
0.0061433688191493357814
0.0062216439206626995145
0.0063987159322820078011
0.0065988010151504638418
0.0067832358192499676505
0.0069366001423955617189
0.0070582213915460333825
0.0071565760890349456452
0.0072503670329292155272
0.0073602049511272528773
0.0074983217406357207876
0.0076701235176111727185
0.0078740358541709593726
0.0081064475015858710599
0.0083590318742595703938
0.0086166396573200670223
0.0088547989213429382366
0.0090440889113207051375
0.009158475400072762368
0.0092006846318283350833
0.0092024973539545553564
0.0091981011209456130934
0.0092101151583424845787
0.0093120114293421887841
0.0097358802891753231518
0.010367515093288426353
0.010796352036397624877
0.0110347381994756015
0.011141066309307064153
0.011175492146765105689
0.01118195580505456331
0.011183272512024168902
0.011185426583016208277
0.011192911874181645307
0.011221426094984401911
0.011294592564182109884
0.011362745260207101142
0.01140790349910491587
0.011426922855403103332
0.011428949940829959825
0.011420091052041024537
0.011409717560795153146
0.011415358784704919548
0.011477128900221318999
0.011757091318610404448
0.012279874486319003815
0.012679709414672236598
0.012951743274923774654
0.013128310982546138874
0.013251520977924839337
0.013355463327960668748
0.013466423070520762775
0.013598146236433267253
0.013757238464735907502
0.013943897412863514446
0.014147238393691214525
0.014344723402535152976
0.014504365042218235818
0.014602438110396966445
0.014639173934420466466
0.014640217615339472593
0.014616805048829457914
0.014555015115732167913
0.014532934912760305662
0.014540077731157282498
0.014612667698408890807
0.014920371098116632855
0.01540131694994272514
0.015761512742034956142
0.01602293413618205084
0.016225194425300622919
0.016399065777456516696
0.016565181911377773599
0.016739122404259398902
0.016930950959268314254
0.017145836917296257418
0.017369371277752888166
0.017572543568174281425
0.017717069758612227076
0.017785969054909075981
0.017796700152535163686
0.017782370760558573186
0.017702156647801264161
0.017516247146551918584
0.017392014053505291254
0.017336969951667911827
0.01732386762251851911
0.017329018815065298093
0.017373375517540413232
0.017554395373948421255
0.017916711696265907872
0.018276363054444709488
0.018628797919151871693
0.018974575342189551469
0.019321132223671960704
0.019673287922058704802
0.020032742413266576426
0.020381136037392198063
0.020679962909417190509
0.020891007268312430933
0.021001034824915335714
0.021032349266862208209
0.02102804832881372335
0.020979940478624541783
0.020781147910833411979
0.020541222244948240117
0.020413669620117806669
0.020378130789982785293
0.020390076597875294445
0.029242954494013692623
0.028687426801611681793
0.027790037146014787139
0.027295297703805586342
0.02715333678343173629
0.02717164049123160785
0.027373315225075724177
0.028073062792646048813
0.028766325576568330114
0.029189624979646333625
0.029439036317002939547
0.02960920791253790485
0.02974749386391599415
0.029848260266356684695
0.029894511043969739655
0.029898453558409966019
0.029862027719914793766
0.029661918482836422545
0.028956530623036765698
0.028064843868255320847
0.027441124941867366116
0.027073522607152011865
0.026903346301026719034
0.026853913860902956651
0.026853099832195227725
0.026874240575760658528
0.026958633840447585733
0.027053128727211019772
0.027107221235022078976
0.027130561902223543358
0.02713479318078903732
0.027130929370750546392
0.027112775725810136368
0.027044147324108695762
0.026845655139503224462
0.026622056724958053503
0.026437305961221738843
0.02629235832758183844
0.026189109713962450271
0.026119789444014898661
0.02608105048765367931
0.026063704839342824449
0.026058571215574907742
0.026059872587862183829
0.026072483099464111023
0.026114939313926312237
0.026195278642261041885
0.026270604420434603282
0.026335749383898935522
0.026388231321200595475
0.026427811893359850343
0.026453839139306937339
0.026468705297333753462
0.026476071476926110043
0.026479830869270252341
0.026482076956208296797
0.026484049997463867537
0.026486640218878011732
0.02649175150045317631
0.026503858071693649212
0.026536627976519011618
0.026614275290806028301
0.026710150952080145836
0.026815229800406393396
0.026926730343667552164
0.027037373971807301259
0.027140056252127241904
0.027229015920894262398
0.027298314334986618912
0.027347259504679626713
0.027376968275960048005
0.027392770181790818823
0.027399761088342262233
0.027402522291436318125
0.027401742902198548274
0.027393757151675926509
0.02738257587793607728
0.027377286910091048339
0.027375457927102560263
0.027376574551721790524
0.027386054227055398741
0.027427637570245883003
0.027550777098891032768
0.02769360489223893565
0.027816484429704503578
0.027919253220691747641
0.028001426928912394321
0.028063740814995744716
0.028109454701063889964
0.028142122296854470143
0.028164591740290248478
0.028181721610544871459
0.028197504542891084489
0.028213415269884335734
0.028230339585445358985
0.028249701433170695819
0.028271885436006706505
0.028294538280510931477
0.028316184675162003881
0.028337203671223661766
0.028356364377030918861
0.028373199876401695996
0.028388177692247999057
0.028401828291702593127
0.028415537956510431017
0.028430325503830705669
0.028447210873631976341
0.0284680733750001351
0.028493541099247159804
0.028526062144637230611
0.028565229455688061211
0.02861300528317262809
0.028670576198550377228
0.028736123545011711677
0.028807979031850974166
0.028884466347666819946
0.028960820057200430122
0.029033072466664384265
0.029096726388679317737
0.029147131472763709858
0.029184570148676459989
0.029208870713863920726
0.029222071142931911603
0.029228084804373031386
0.029231366421902531955
0.029233220062690665891
0.02923306111294061288
0.029228366690544013012
0.029211072474854968967
0.029190640752893598497
0.029165167712864592531
0.029141260410354714178
0.029112922098933020909
0.029086923440520599804
0.029057313624317734208
0.029030218123649004225
0.028999542621765215383
0.028971771809292626298
0.028940325148524168042
0.02891212981244457858
0.028880235552623347017
0.028851437414171836326
0.028819101662599107272
0.028789626369834911412
0.028757034452371640909
0.028727625677989577363
0.028695650274964689536
0.02866746544185455256
0.028637231591981945206
0.02861086859029408902
0.028582314431601543725
0.028557200060775417283
0.028529510110544817336
0.028505342398396377873
0.028478495706302304341
0.028455832322308634991
0.028430358523209488947
0.028408815250249051104
0.028384385464813012556
0.028362797344854220188
0.028337883950305061548
0.028315115104196920265
0.028288172009822237091
0.028263691406885831092
0.028234930606868571118
0.028209260750521696764
0.028180120769938667852
0.028154778158548977862
0.028126571306861355287
0.028103329334610245571
0.028076840906457144198
0.028055771483865270949
0.02803042372891369205
0.028009766507507270761
0.027984138121156701406
0.027962324550459431716
0.027935312464786581088
0.027911693342882227392
0.027882460207049503814
0.027856690596612710548
0.027825249720530978448
0.02779763040767375612
0.027764703554249668682
0.027736472270217603364
0.027703669824403406863
0.027676117513751333221
0.027644419355051269571
0.027617906650162470095
0.027587051340929615723
0.027561670702474217604
0.027531943885989201837
0.027507341225978438476
0.027478324745511168575
0.02745370213960316233
0.027423844639618607383
0.0273984999051227196
0.027367238046379790961
0.027340901006574425819
0.027308566173168458135
0.027281490157405396263
0.027248660673115685654
0.027221445959765697836
0.027188325082463944693
0.027161296155940147651
0.027128320182530262644
0.02710133868145902028
0.027068506447266774823
0.027041972016453683092
0.02700912262651257445
0.026983092392415749389
0.02695108284679881977
0.026925987333206367197
0.026894820669814880482
0.026871244370468748419
0.026840675465755588214
0.026817197920317153298
0.026787206472138731794
0.026763818539355204579
0.026733441218588425287
0.026710276887498846793
0.026679474971160067193
0.026656185239325162761
0.026625023064496815273
0.026602210851312122625
0.026571126601156212083
0.026548249294686333821
0.026516983240845132946
0.026494116831558729708
0.026461991732522255338
0.026438563880638369513
0.02640560021867883328
0.026381430223263321877
0.026347941082798868179
0.026323621285291781691
0.026289818606229350961
0.026266000710309985594
0.0262325260478580638
0.02620959776669511479
0.026176805326012290986
0.026154720627584861908
0.026122307986451112627
0.026100785358051915852
0.026067948220497419443
0.026046233932482201062
0.026013291171851068984
0.025991390788238845355
0.025958505459501575452
0.025937508963079985297
0.025905409422350662157
0.025884978757962074508
0.025853222866681752762
0.025832839139312127608
0.025800850094961937792
0.025780357430762988052
0.025747328088936278362
3.6407583979277321757e-05
5.0147649415230554889e-05
6.9252947655466245438e-05
9.524012684034489798e-05
0.00011439263741593449976
0.00013194429753386418712
0.00015898035944592246141
0.00019260966367214103225
0.00022595845117636369215
0.00025168830550035642358
0.0002784375412139921107
0.00032684960971340561902
0.00038903163573586783475
0.00043584815343296014938
0.00046300763368449943938
0.00050149625289429159217
0.00055986131058080937373
0.00062772363321212602382
0.00068971038651594583115
0.00072825010826984713699
0.00076163287278221123745
0.00081272424385709903048
0.00086703763720386657545
0.00090260689581737668305
0.0009273025358457490314
0.00097047485315488910777
0.0010837555171379739845
0.001238994470447457889
0.0013256398032867944877
0.0013684275013920337623
0.0014392327654355573097
0.0015512559350368095631
0.0016534592154935697384
0.0017117446706168249447
0.0017505268860840796693
0.0018134660140961590419
0.0019104138480065179992
0.0020131323237400516359
0.0020875090760137764156
0.0021300340198869287429
0.0021740251904905682004
0.0022640783178363541213
0.0024157866848472913518
0.0026005788038375486984
0.0027847862225315071424
0.0029396704620875025067
0.0030504358296199840343
0.0031169899754768040645
0.0031528654300219528632
0.0031806573455156472718
0.0032248229191130231217
0.0032988234227127439212
0.0034011767302933272258
0.0035189727847663447753
0.003636869998562850502
0.0037469776464385865476
0.0038458093454778819256
0.0039288584189479513337
0.0039918185098771772137
0.0040395261300469696014
0.0040931902892803601057
0.0041872083515260543479
0.004344415212162930362
0.0045551113865234058725
0.0047812219723150067158
0.0049788950634216113875
0.0051226798830418113218
0.0052201231540033596681
0.0052986608497815690724
0.0053876270486503787319
0.0055039446606581499122
0.0056475783081061468188
0.0058050093352891166468
0.0059581919103130756218
0.0060924150827282664081
0.0061988054020298763436
0.0062728414508384563314
0.0063167027997100494777
0.0063402087786854337964
0.0063592524409697070639
0.0063924959984617965233
0.0064705399514934291635
0.0066760212596951827579
0.0069624694841231866277
0.0072481179639172256535
0.0075042599536686736481
0.0077071366297390489497
0.0078466024011088052886
0.007928251018253704846
0.007969944778439853883
0.0080012661413740703703
0.0080564563871185924243
0.0081816658177271649188
0.0084945363786036592879
0.008907176354537919144
0.009295417042878367786
0.0095934025260735189544
0.0097641982117054500201
0.0098215365722737740101
0.0098216082032962608028
0.0097902938784706350361
0.0097639132331909222334
0.0097786082608368359026
0.009918810598259183639
0.010465066822346163686
0.011093365823000704909
0.011465514447350874661
0.011640049843205149335
0.011697837152423619725
0.011709140157225869303
0.011710468858797345656
0.011712322698324560341
0.011722519549225877272
0.011765878645614014086
0.011879651356087492578
0.011975157328055596739
0.01203083874838340589
0.012050509155327815761
0.012052756957223994053
0.012040879590583140543
0.012002128764294774099
0.011982430892854507853
0.011986737989286979505
0.012050940253353563392
0.012354698574704840036
0.012911354294080778712
0.013317638093788861792
0.013577552269167609753
0.013745312058574953029
0.013877164318949664415
0.014015742186434105437
0.014186231768127707809
0.014395356808578289171
0.014633262593159997861
0.014879010154220228407
0.01510489238564562825
0.015280475697938456989
0.015387677903013801534
0.015430476579277482146
0.015432601245002853727
0.0154109908682342929
0.015318706140537994079
0.015236517649615618011
0.015219458337952478447
0.015236880843436509392
0.015357400150248551665
0.015741223548759678691
0.016110091253538554729
0.016359556349762421207
0.016542776138496317201
0.016715007007280690415
0.016913814271406268225
0.017156229290243248109
0.017445402711223873676
0.017769503890453192813
0.018100298231665350873
0.018401272514144681458
0.018628961733396395134
0.018759382113901566791
0.018800296517635678439
0.018796607107762697969
0.018744319663822797684
0.018542968946864853835
0.018327040096152224374
0.018219554433025603873
0.018189643417686151422
0.018194362966538903115
0.018253145721091344755
0.018513119151044934996
0.019089567902025518509
0.019561911330737973003
0.019859767729400921998
0.020027955578857854074
0.020165877612201951047
0.020365370888607452204
0.02067492842799656394
0.021088907180760035898
0.021542216837236286692
0.02195100289126701576
0.022244735306594275864
0.022398485654623285362
0.022441429797569238669
0.022433424593846257311
0.022357191238539034228
0.022048684950845380548
0.021645245058613680339
0.021397445988852469706
0.021290360855136934715
0.021272726487887614472
0.030593804170334682607
0.030063699710938251997
0.02912810145893277719
0.028614829718668428199
0.02847700390591800107
0.028505068197998407326
0.028764052314142113387
0.02963701902479640507
0.030460358971497802222
0.030929897313460529701
0.031167905530683281262
0.031303190279192330547
0.031409745005998856993
0.031493505375362176868
0.031535274082774893134
0.031539573860548696105
0.031506881148114673774
0.031325874847843604432
0.030664003409502010866
0.029735162052206619981
0.029064314041120399568
0.028648797993139706042
0.028435668724483047221
0.028352830652335358347
0.028333726201623266744
0.02833470779530050665
0.028344499124711743099
0.028381481880737115253
0.028438329457967918834
0.02847700109036550159
0.028499778746655348577
0.028507720176416961183
0.028506234144022167543
0.02849553398979924948
0.028444674395047119669
0.028270557711291402492
0.028047378770153997413
0.027875973248848974484
0.02775532940914884894
0.027676162510661472121
0.027628816019237330964
0.027602751929856117474
0.027588301247398291927
0.02758145969718259205
0.027579215611636464373
0.027579534740339216314
0.027583108536720229303
0.027592082886631008609
0.027617973554240411033
0.027685150446776052302
0.027755648357527275966
0.027814910075161902725
0.027865866985821555885
0.027909754098573782977
0.027948955467525512381
0.027982858780514329594
0.028012247589816224175
0.028038891474139741172
0.028066112864823578033
0.028097889530207920128
0.028139613923575116511
0.028193906422166098436
0.028260087392839389198
0.028335183557185124326
0.028413858744247531829
0.028489467439692873346
0.028556048256840858152
0.028609626798366004363
0.02864927401273144672
0.028676515902801170271
0.028694210550224811401
0.028708423242213374632
0.028726302048463003141
0.028754144615185408401
0.028795806575444459624
0.028851173047981324565
0.028918395618621473009
0.028994958168928556402
0.029075442959926926095
0.029155809692311775161
0.029231227578743142204
0.029298237270876478777
0.02935663417583528334
0.029407247237582954252
0.029451138815333927079
0.029488925400419009615
0.0295219525034284766
0.029550486211079401294
0.02957490881909867475
0.029597567307493327649
0.029620321431674433849
0.029644772113019465104
0.029673395802234284191
0.029708376239613403652
0.029749008044687549196
0.029792701433994452781
0.029837377584247083001
0.029881097758993224733
0.029921329986966189313
0.029955235386757862043
0.029983363417402701667
0.030005046187837336458
0.03002060291132858591
0.030030718932030818491
0.030038299493663746242
0.030044924326638404455
0.030053146288265931291
0.030065842423231379371
0.030084941858507237983
0.030112422879578680524
0.030148106204223184407
0.030191428907945672827
0.030241765190472221642
0.030297331516030194531
0.03035488628993582641
0.030413465448534817565
0.030471394968701385336
0.030526854559092837099
0.030578257505916788678
0.030621845018437707925
0.030656211450802880319
0.030680588339707316053
0.030695739056457629901
0.03070406373268973893
0.030709495559766136069
0.030713263365816256822
0.030715314686334083821
0.030714752753072196295
0.030705973926940317159
0.030690017320745437146
0.030671327401599165347
0.030657030362466957535
0.030641442479505523466
0.030632425264153700234
0.030621996789990852533