/*--------------------------------*- C++ -*----------------------------------*\
  =========                 |
  \\      /  F ield         | OpenFOAM: The Open Source CFD Toolbox
   \\    /   O peration     | Website:  https://openfoam.org
    \\  /    A nd           | Version:  12
     \\/     M anipulation  |
\*---------------------------------------------------------------------------*/
FoamFile
{
    format      ascii;
    class       volScalarField;
    location    "0.009";
    object      nut;
}
// * * * * * * * * * * * * * * * * * * * * * * * * * * * * * * * * * * * * * //

dimensions      [0 2 -1 0 0 0 0];

internalField   nonuniform List<scalar> 
75962
(
4.832279904614031798e-07
5.9470605881913819716e-07
6.9218044835978775822e-07
7.4052938027614121306e-07
7.9936661474655698895e-07
9.2493299905966180885e-07
1.0714104988817151247e-06
1.1662276194706219611e-06
1.2133779090328088833e-06
1.2600441855879502249e-06
1.3520096054229084539e-06
1.4778030982515563706e-06
1.576385826344323018e-06
1.6247584431081498169e-06
1.6651692792668007731e-06
1.752186681816043611e-06
1.8704644931817789626e-06
1.9436243483809532062e-06
1.9814032869928450663e-06
2.0381658199588531744e-06
2.1336017775960526196e-06
2.2297890505637937112e-06
2.2915172873043238238e-06
2.3314924785008701333e-06
2.3954878612093963797e-06
2.5089096459764942773e-06
2.6451243741316217161e-06
2.7540338237633759461e-06
2.8153241306375812204e-06
2.8606321155595240337e-06
2.9360282551819240785e-06
3.0456063415784258106e-06
3.1504358341523711831e-06
3.2160139238012868151e-06
3.2440609770249881039e-06
3.2644459258035150151e-06
3.3071238872232876272e-06
3.4010678571385404003e-06
3.5121157799125271959e-06
3.6140060190046467815e-06
3.6913769068288579601e-06
3.742965388782646807e-06
3.7879791134145717271e-06
3.8518484482168138583e-06
3.9416320662936169255e-06
4.0425553945753223839e-06
4.1327085029919619506e-06
4.1984481849932822793e-06
4.24066871903855825e-06
4.2725288800511259662e-06
4.3127033724043593095e-06
4.3689958096657572595e-06
4.4337612079732063427e-06
4.4952547184462197463e-06
4.5510566922140498393e-06
4.6089360329272421849e-06
4.6762297474540797789e-06
4.7495977417986042399e-06
4.814632659038314289e-06
4.8572294950056613624e-06
4.8791531388764494085e-06
4.8987074123242192167e-06
4.9397493204702198389e-06
5.0297325274690413537e-06
5.1568789232056617259e-06
5.2901227542881501561e-06
5.3989947439173193044e-06
5.4696732607268960428e-06
5.5078765002073012689e-06
5.5293288752055058332e-06
5.5512893527661625023e-06
5.5873531089601294336e-06
5.6438921061342990117e-06
5.7176324493416350457e-06
5.797225793895272344e-06
5.8690273683324987737e-06
5.922509823676361948e-06
5.9540731320817300343e-06
5.9684294640540394813e-06
5.9774376453671521637e-06
5.9962233830842680106e-06
6.0463600816654288405e-06
6.1413421388987436073e-06
6.244430017503283923e-06
6.33646571301665251e-06
6.4038282962150639313e-06
6.4472295143330889225e-06
6.4746171872496379777e-06
6.4969284495819825426e-06
6.5223910217587864597e-06
6.557822210602778309e-06
6.6093309505224789483e-06
6.6823161393932728987e-06
6.7790815468248311567e-06
6.8991178756502598692e-06
7.0345377274453558462e-06
7.1663769350682898987e-06
7.2691242308644153435e-06
7.3260558458013887365e-06
7.3401492682881511103e-06
7.3338146734954280431e-06
7.3183233572608198772e-06
7.3103418160349995956e-06
7.3188353027188282312e-06
7.3911249106870523476e-06
7.5599106057906295138e-06
7.6824310730420338833e-06
7.7568096807311380514e-06
7.8001136757636906495e-06
7.8264259259475258475e-06
7.844022848049872948e-06
7.858608312816143458e-06
7.874251765579688578e-06
7.8959444718145874902e-06
7.9260898793200239119e-06
7.9615442486387495816e-06
7.9958115426281989188e-06
8.0193193523192445249e-06
8.0281373622616612431e-06
8.0247553797098066674e-06
8.0163007008620197266e-06
8.0053557111862977012e-06
8.0008509596404225574e-06
8.0140046678411544761e-06
8.0960072299336352232e-06
8.2441897814591781222e-06
8.3475261566273343357e-06
8.4103056665676736292e-06
8.4467378646316740575e-06
8.4726124338057592434e-06
8.4980698607270553256e-06
8.5295803950348034921e-06
8.5702931979430438327e-06
8.6209919782234443677e-06
8.6816459807498083385e-06
8.7483121079583438072e-06
8.8123950244413713518e-06
8.8623459438523245193e-06
8.8897617283135352522e-06
8.8955097559988480617e-06
8.889516069434994541e-06
8.8744310078108168204e-06
8.8494183484346460532e-06
8.8376953083778093305e-06
8.8347164379697668571e-06
8.8548457751234957528e-06
8.9441537207498008678e-06
9.054920931777761875e-06
9.1350899845461847233e-06
9.1860946732058422091e-06
9.211542892097866159e-06
9.2235201669925696871e-06
9.2434763863754899069e-06
9.287825477143662106e-06
9.3577789482210703881e-06
9.446855822729867294e-06
9.5421192863709516804e-06
9.6273522479089989435e-06
9.6855802723672909286e-06
9.7103385851731959091e-06
9.7096018183312887684e-06
9.6983986586721996021e-06
9.6648992260549605195e-06
9.6046616377723019714e-06
9.5662044265567536499e-06
9.5478006474006734799e-06
9.5392428232452838963e-06
9.5346369512038139633e-06
9.5395118207274200292e-06
9.5717604064657556105e-06
9.6421117661651876117e-06
9.727628578805779853e-06
9.8236741146938457423e-06
9.9212292211286117827e-06
1.0011582158823632675e-05
1.009263421135819356e-05
1.0164130525473443452e-05
1.022368944470784032e-05
1.0267759539381429156e-05
1.0292420980921002005e-05
1.0298320700474511519e-05
1.0292691196389168842e-05
1.0281451871406847875e-05
1.0250538423223027679e-05
1.0178883628125866105e-05
1.012191527323691792e-05
1.0092178241271733958e-05
1.0081328526204382987e-05
1.1595469261221721431e-05
1.1431130685353768338e-05
1.1349596786149253691e-05
1.1328944078448523514e-05
1.1335577362451146883e-05
1.1416283950594530606e-05
1.1612889697832388193e-05
1.1743359223347646117e-05
1.1802130121125600101e-05
1.1815541002639218571e-05
1.1810056348031038948e-05
1.1800981117532927055e-05
1.1791744402731260517e-05
1.1782508670992254796e-05
1.1770233223730268085e-05
1.1743383464358571309e-05
1.1662409647029774355e-05
1.1475473225306215367e-05
1.1307596945789965997e-05
1.1187648270434432418e-05
1.1114643695945423515e-05
1.1078482140379298718e-05
1.1064060294880912404e-05
1.1057151961197898558e-05
1.1057174274157760151e-05
1.1076403309047169981e-05
1.1097715947203805442e-05
1.1107839391068712197e-05
1.1109657146003079699e-05
1.1105529502781904893e-05
1.1098076814061741559e-05
1.1089232090774577539e-05
1.1075892975419973914e-05
1.1046959786565205486e-05
1.0992474513109456538e-05
1.0941363976622781558e-05
1.0897868955559679162e-05
1.0863155256826437264e-05
1.0836571454075639761e-05
1.081753177010774516e-05
1.0804439734916611391e-05
1.0795248341792216699e-05
1.0787800452099595639e-05
1.0782812678422232323e-05
1.0784562948736587371e-05
1.0801825164491586455e-05
1.0820189684127474677e-05
1.0833108865786630985e-05
1.0840599789476409442e-05
1.0842463245929862106e-05
1.0840031585715830179e-05
1.0834465767982464412e-05
1.0827419982446062524e-05
1.0819757740486978466e-05
1.0811980043303796536e-05
1.0804015379605168843e-05
1.0796555286819016384e-05
1.07894725321695511e-05
1.0783402921397889352e-05
1.0780485905819320956e-05
1.0787084118661223364e-05
1.0802527748880652302e-05
1.0818283978313502505e-05
1.0834041398656824482e-05
1.0848667858708926844e-05
1.0861365024758366454e-05
1.087127383053544567e-05
1.0877469691321087211e-05
1.0879871348692459222e-05
1.0878589277602899711e-05
1.0874560805676742952e-05
1.0868608588250954506e-05
1.0861737750109214364e-05
1.0854149807857030392e-05
1.0845598802749052908e-05
1.0836636102705225681e-05
1.0828325848842100572e-05
1.0820685127403630206e-05
1.0813861080061157666e-05
1.0810509416003505386e-05
1.0818644180444438846e-05
1.08355311160880538e-05
1.0850360415561374891e-05
1.0863070530795667016e-05
1.0873602295460525803e-05
1.0881672003607299453e-05
1.0887272797190421724e-05
1.0890792075244153149e-05
1.0892469577192935863e-05
1.0892488830809330487e-05
1.0891360473452167047e-05
1.0889500736065901504e-05
1.0886867605648823868e-05
1.0883506445050170232e-05
1.0879758963642169458e-05
1.0875597107700420323e-05
1.0870808237220065388e-05
1.0865356293878610267e-05
1.0859582170661642508e-05
1.0853412023761254153e-05
1.0847009325882446041e-05
1.0840522115581349713e-05
1.0834127252270241124e-05
1.08280685748373491e-05
1.0822516898113913468e-05
1.0817506984030139241e-05
1.0813259079508487202e-05
1.0809911237641301815e-05
1.080798031123419524e-05
1.080737318364194921e-05
1.0808568981423890201e-05
1.0811897972399260451e-05
1.0817000466413317076e-05
1.0823527622623788352e-05
1.0831107506843007276e-05
1.0838788901107187536e-05
1.0845624703347477805e-05
1.0850664679800351716e-05
1.0853139600288662877e-05
1.0852937018567087836e-05
1.0850152262153107713e-05
1.084521283480164608e-05
1.0838701587389164228e-05
1.0831585677157926973e-05
1.0824174982721165272e-05
1.0816439519814335143e-05
1.0807672845451418109e-05
1.0796122708929148197e-05
1.0783529751687126041e-05
1.0770261906449036431e-05
1.0757360106056057102e-05
1.074397854096674204e-05
1.0731088876664662029e-05
1.0717823392513660524e-05
1.0705021257656372952e-05
1.0691757049552596891e-05
1.0678971389379241245e-05
1.0665671037450954496e-05
1.0652884800102018368e-05
1.0639604523251402929e-05
1.0626798057800563546e-05
1.0613529880507950492e-05
1.0600727564035326814e-05
1.0587544115042764895e-05
1.0574942406972162638e-05
1.056206038634483827e-05
1.0549782715858898466e-05
1.0537265011550802786e-05
1.0525281048756368781e-05
1.0513037533543827831e-05
1.050130575584833183e-05
1.0489297758494327804e-05
1.04778373833382309e-05
1.0466053588972968361e-05
1.0454861670182061823e-05
1.0443284632957594227e-05
1.0432220649971697229e-05
1.0420779600214674507e-05
1.0409714000952903181e-05
1.0398212883078982504e-05
1.0387004184937976935e-05
1.0375197274624775161e-05
1.0363750187009709988e-05
1.0351672076615684806e-05
1.0340018415057525066e-05
1.0327880955168685224e-05
1.0316270802920570211e-05
1.0304240552458093303e-05
1.0292959241067940745e-05
1.0281179949892266126e-05
1.0270244910042316083e-05
1.0258625964832814733e-05
1.0247736543233356145e-05
1.0236038964774433978e-05
1.0224942762419855636e-05
1.0213018753302125679e-05
1.0201647859495908087e-05
1.0189356785374731245e-05
1.0177617570140186251e-05
1.0164923162930556143e-05
1.0152821838068749676e-05
1.0139882656659110935e-05
1.012772556552635466e-05
1.0114871070978090765e-05
1.0102884078901834628e-05
1.0090242510156033438e-05
1.007845199429332949e-05
1.006594374495171851e-05
1.0054346233276807745e-05
1.0042038049025386437e-05
1.0030581491081940306e-05
1.0018464526340876709e-05
1.000709864470932321e-05
9.9949078917253894296e-06
9.9834872703792945647e-06
9.9710853473049644927e-06
9.9594899059930286182e-06
9.9469103514000769206e-06
9.9351786367173998275e-06
9.9224807143904072244e-06
9.9106731475685445399e-06
9.8978731254550137667e-06
9.8860782455325862131e-06
9.8732937813543936888e-06
9.8615223766234359499e-06
9.8487798055584098103e-06
9.8371135991848642047e-06
9.8243710040004596955e-06
9.8128086594698123889e-06
9.8002606959828803462e-06
9.788886995889913077e-06
9.7765004690205441706e-06
9.7654219531652815798e-06
9.7531504401274622212e-06
9.7421127602272851865e-06
9.7299478003299087167e-06
9.7189137918134463709e-06
9.7066843596224788735e-06
9.695725941618317276e-06
9.6834979599460964384e-06
9.6726341260245748179e-06
9.6604567318869306766e-06
9.6497689899014179443e-06
9.637633912586593231e-06
9.6268778964109511301e-06
9.6146539352809200766e-06
9.6038404394537260162e-06
9.5914285726955208491e-06
9.5805134859766845817e-06
9.5679496651708376175e-06
9.5569368219764828568e-06
9.5443142213760191641e-06
9.5332993026945332047e-06
9.5206538847051796684e-06
9.5098030891432024314e-06
9.497254985933864177e-06
9.4866116315802864875e-06
9.4742260163258139717e-06
9.4637187706568535371e-06
9.4514030048331298939e-06
9.4409965314731950856e-06
9.4285700638038962712e-06
9.4181844355738049608e-06
9.4057784951012291533e-06
9.3953682067704755084e-06
9.3830221916333200971e-06
9.3728263621438600613e-06
9.3606652493321009195e-06
9.3505889543871010964e-06
9.3385244408108089136e-06
9.3284684041584280627e-06
9.3163592061847775937e-06
9.30624133798432287e-06
9.2939109686720046497e-06
5.1274470233272071656e-07
6.0815266094226270794e-07
6.8763960395726377461e-07
7.4308221675652101726e-07
8.38048872476603206e-07
1.0009912814116341433e-06
1.1149798445912714139e-06
1.1665588813004084956e-06
1.2241699168779043293e-06
1.3335962975389580031e-06
1.4490273191242198317e-06
1.5247606138979393658e-06
1.5652589923632407336e-06
1.6158048296755093019e-06
1.7274898977562126612e-06
1.8857517643899055194e-06
2.0067627431364227579e-06
2.0683986358341760368e-06
2.0981182821034056878e-06
2.1429922193424303306e-06
2.2405801480203734426e-06
2.3638546839229346979e-06
2.4674382602640499867e-06
2.5296345269006543489e-06
2.5587502568563934437e-06
2.5862633187317731948e-06
2.6480778656352867445e-06
2.8033000962687324716e-06
2.9444372027790278306e-06
3.0384526507897317816e-06
3.121689544008382539e-06
3.2011440193727049296e-06
3.2637840066712437461e-06
3.315481129079843343e-06
3.3795343528341988019e-06
3.4680412996758269137e-06
3.5670287335764887666e-06
3.6506833743000161919e-06
3.7042424654426931174e-06
3.7340622077219123955e-06
3.7634384783698703502e-06
3.8240552165959271867e-06
3.9568049072926516572e-06
4.10867817256119507e-06
4.2423906835690126024e-06
4.3492351625591646442e-06
4.4345544864067911017e-06
4.5055181903512311247e-06
4.5629812802882013106e-06
4.6029357148731928905e-06
4.623587963066173325e-06
4.6346993103006002421e-06
4.6538543845136841307e-06
4.7013457156282944328e-06
4.7750201880718216033e-06
4.8543823307917349479e-06
4.9346016111964906427e-06
5.0069438742172156609e-06
5.0599260438271549494e-06
5.0898846256131847154e-06
5.1083213330371805741e-06
5.1372279904748549472e-06
5.2036890740060814923e-06
5.3321854197419704774e-06
5.4890494339972994989e-06
5.6363996126155233994e-06
5.7449791087215747385e-06
5.8066397785689051291e-06
5.8324383553182164696e-06
5.8432917546654764888e-06
5.8586037874566062231e-06
5.8912345307760771303e-06
5.9464181652049075136e-06
6.0210394827286909056e-06
6.1036493963147696499e-06
6.1791304294856556618e-06
6.2353138672056458873e-06
6.2680214883985196626e-06
6.2818593813144396818e-06
6.2883544234866858166e-06
6.3010696143328354601e-06
6.3365502929198406432e-06
6.4214914209926845574e-06
6.5166005292464180971e-06
6.6024908053782699774e-06
6.6721268662290663797e-06
6.7257386508185566047e-06
6.767763232992904149e-06
6.8072339123972576107e-06
6.8538093673994574757e-06
6.9129689269234944693e-06
6.9868118880135242504e-06
7.0741140073583926078e-06
7.1727331531504959856e-06
7.2785440215100105882e-06
7.3847319667187437891e-06
7.4809580010139011233e-06
7.5553574606648259593e-06
7.5978340418834304252e-06
7.6101238153427297361e-06
7.6056117478538193949e-06
7.5985027470163088572e-06
7.5981208178813171997e-06
7.6344684603679128528e-06
7.800220007163606665e-06
8.0438919053259272022e-06
8.2031739589103624824e-06
8.2877155883411193088e-06
8.3219080650203404697e-06
8.3290391204044233249e-06
8.3256880965288718979e-06
8.320403138708605046e-06
8.3154293793335319206e-06
8.3124293423402388973e-06
8.3171870165356264528e-06
8.338424703874907959e-06
8.3577634544275911652e-06
8.3685698092057128318e-06
8.3697578380761987113e-06
8.3647085429783277146e-06
8.3556869036490702581e-06
8.3460816896521903624e-06
8.3423231811544901979e-06
8.3589046364083706859e-06
8.4538714977966360881e-06
8.6338273219854098976e-06
8.7673474693318523e-06
8.8548879902651056131e-06
8.9089378871150934125e-06
8.9444695191485015486e-06
8.9732547529371668856e-06
9.0041893211311637151e-06
9.0418184505791403466e-06
9.0882133758990505084e-06
9.1432804221261093441e-06
9.2033049698793974039e-06
9.2609133993999890049e-06
9.3059026362287987951e-06
9.3309050078165837533e-06
9.3362044028814514458e-06
9.3300709626319417968e-06
9.3161861951572405018e-06
9.2900166059259416714e-06
9.2764678206280518319e-06
9.272267027927950925e-06
9.2887726960005742485e-06
9.3791307182558314334e-06
9.5225690205809214087e-06
9.6267454665511127269e-06
9.6996255623869877905e-06
9.753940700947356113e-06
9.7992820950123669856e-06
9.8419526353777828201e-06
9.8866059559669457375e-06
9.9361647750847503709e-06
9.9920551989786262042e-06
1.0049999760179324814e-05
1.010163470942231919e-05
1.0136130866890328379e-05
1.0148853838751345312e-05
1.014490852284391952e-05
1.0133813639761493096e-05
1.0104030547889989491e-05
1.0043867576249528072e-05
1.0001140096782287043e-05
9.978302763313717921e-06
9.9675767715674838996e-06
9.9621193968558890318e-06
9.9678493973496848737e-06
1.0012414066921892071e-05
1.0108137560141075589e-05
1.0202005511359887451e-05
1.0292764449647317029e-05
1.0380651060284002009e-05
1.0467756658309347522e-05
1.0555396089283635211e-05
1.0644012966742319231e-05
1.0728763131903811123e-05
1.0799708595248220532e-05
1.0847238460296372862e-05
1.0868298838007003272e-05
1.0868889230315105922e-05
1.0860240998776649244e-05
1.0840354280899682573e-05
1.078156997012540529e-05
1.0711623277590835672e-05
1.0670799601865481435e-05
1.0654042976632083109e-05
1.0649722686666592269e-05
1.2430453353596992546e-05
1.2303872279755615198e-05
1.2101297941935679732e-05
1.1984390747527217424e-05
1.1944637459809489475e-05
1.1940274171994605843e-05
1.1975881860269876373e-05
1.2119170868691139643e-05
1.2259681980649474346e-05
1.2341192131362527601e-05
1.238530613520972763e-05
1.2412463665943734433e-05
1.2432800382149258753e-05
1.2445236880270722562e-05
1.2446281535477543827e-05
1.2438492509871368455e-05
1.242235776429090029e-05
1.2372337667953766356e-05
1.2216402962701097631e-05
1.2018325188447778125e-05
1.1875533210627880148e-05
1.1787316042788083007e-05
1.1741900458571396507e-05
1.1722883646325276105e-05
1.171454700219496185e-05
1.1710984382635922343e-05
1.1721152137017271872e-05
1.1733562568521007784e-05
1.1737169361499633573e-05
1.1734093492755922402e-05
1.1726869784219726261e-05
1.171789672058044122e-05
1.1705857187766462155e-05
1.1682989145111288804e-05
1.1632066932985092423e-05
1.1575443905023108414e-05
1.152716541636092524e-05
1.1487510120682886425e-05
1.1456946872493544221e-05
1.1433808330830651383e-05
1.1417372410092475481e-05
1.1405630044862547884e-05
1.1396568055405945755e-05
1.1388918821230976469e-05
1.138372980701914652e-05
1.1385031801231922598e-05
1.1394609339069694957e-05
1.1403078817121338167e-05
1.1409312449276272421e-05
1.141277688724909538e-05
1.1413426166290986427e-05
1.1411127110141227689e-05
1.1406406030004017293e-05
1.1400063256479719685e-05
1.139294647994122084e-05
1.1385511764380579938e-05
1.1378026994034022386e-05
1.1370680897895259494e-05
1.1363878179881045863e-05
1.135856970087123243e-05
1.1357661673788214027e-05
1.1366328092035740308e-05
1.1378871393369062743e-05
1.1393314983137323173e-05
1.1409058781348504124e-05
1.1424553768664256646e-05
1.1438300484912606732e-05
1.1449097661733075764e-05
1.1455715924778795149e-05
1.1458032138475150475e-05
1.1456299791004161993e-05
1.1451648678815231464e-05
1.1445154607560177934e-05
1.1437781475519635048e-05
1.1429678177287870027e-05
1.1420090768230579001e-05
1.1409832450119653763e-05
1.1400810726410691884e-05
1.1392517806597672573e-05
1.1384840913073089949e-05
1.1378891081494484026e-05
1.1379562062475660761e-05
1.139707592804567163e-05
1.1418661413070019278e-05
1.1436036833991098386e-05
1.1449205907093030414e-05
1.1458100481447373986e-05
1.1462895785798942901e-05
1.1464276722683854298e-05
1.1462982717035083332e-05
1.1459603670615135142e-05
1.1455134357938265841e-05
1.1450390867929133838e-05
1.1445674320622939766e-05
1.1441163016850187644e-05
1.1437143162740884283e-05
1.1433691188863868694e-05
1.1430329845536381299e-05
1.1426759912261163837e-05
1.1423059255706265449e-05
1.1418982317008845965e-05
1.1414437084346138094e-05
1.1409519926089073407e-05
1.1404339261229441986e-05
1.1399174321693755112e-05
1.1394228867594070689e-05
1.1389704082077461764e-05
1.1385971703464997659e-05
1.138315147569177093e-05
1.1381727712543773508e-05
1.1381615070786752406e-05
1.1383200248262954359e-05
1.1386716060195085232e-05
1.1391796047251240653e-05
1.1398102805243122266e-05
1.140529978874438649e-05
1.1412442556780525606e-05
1.1418748995191682285e-05
1.1423339309272079414e-05
1.1425307147650915485e-05
1.1424716762103775611e-05
1.1421543904261718629e-05
1.141619423179281013e-05
1.1409438194565275733e-05
1.1402151405066158015e-05
1.1394593371727854478e-05
1.1386651810668360735e-05
1.1377844556508821998e-05
1.1366600591806194808e-05
1.1354743582189021981e-05
1.1341917094532065604e-05
1.1329402782666565415e-05
1.1316034044967054117e-05
1.1303126884981225776e-05
1.1289525948959265418e-05
1.1276422345920021986e-05
1.1262633395669387773e-05
1.1249419766273798473e-05
1.123550447657292713e-05
1.1222233029870301108e-05
1.1208256525692670999e-05
1.1194892909145642831e-05
1.1180854332326010175e-05
1.1167380543308500672e-05
1.1153311377568013186e-05
1.1139868215108349341e-05
1.1125936383182079064e-05
1.1112748836732324402e-05
1.1099174503659736931e-05
1.1086360882635962967e-05
1.1073133284249494349e-05
1.1060582014335017422e-05
1.10475413633855566e-05
1.1035191898783833987e-05
1.1022332901124607158e-05
1.1010293255737789469e-05
1.0997720401079888296e-05
1.0985918899718964296e-05
1.0973571518217572774e-05
1.096178547665001484e-05
1.0949368993300446194e-05
1.0937378569457651228e-05
1.0924591977328665293e-05
1.0912289607723014406e-05
1.0899168156391441747e-05
1.0886649451904539714e-05
1.0873466995116306069e-05
1.0861023240546124798e-05
1.0848034028451702688e-05
1.083601159065825048e-05
1.0823373777606450663e-05
1.0811792823224843505e-05
1.0799400481886544328e-05
1.0787924798209935464e-05
1.0775504730821583424e-05
1.0763831080323622757e-05
1.0751168231152933633e-05
1.0739168900644396274e-05
1.0726099461872557595e-05
1.0713705847312492633e-05
1.0700230830451055932e-05
1.0687499312007474005e-05
1.0673755456483349582e-05
1.0660921672763359346e-05
1.0647216816813511098e-05
1.0634528285065971586e-05
1.0621051511782597264e-05
1.0608579933513997704e-05
1.0595284045759358738e-05
1.0583049926255243416e-05
1.0569992500656946814e-05
1.0557929833257337365e-05
1.054503181264052254e-05
1.0532988785562778081e-05
1.0519953120097686887e-05
1.0507794848841352272e-05
1.0494512703144321796e-05
1.048218497599729364e-05
1.0468716690522157284e-05
1.0456264868025191803e-05
1.0442718581139445706e-05
1.0430256610356522783e-05
1.0416671815613849517e-05
1.0404263658485397048e-05
1.0390726894642034707e-05
1.0378348571454906163e-05
1.0364859997114702779e-05
1.0352586665243649033e-05
1.0339112712559812743e-05
1.0326951632265248646e-05
1.0313654501846101263e-05
1.0301689267211386504e-05
1.0288572228771439176e-05
1.0276918144131940187e-05
1.0263938319154132766e-05
1.0252325160520660009e-05
1.023947784852992337e-05
1.0227902957838142886e-05
1.0215001724548036601e-05
1.0203487826023686751e-05
1.019052375113290663e-05
1.0179003218301917164e-05
1.0165988207773777989e-05
1.0154576749946220911e-05
1.0141596167698585117e-05
1.0130191428138685385e-05
1.011719589187799699e-05
1.0105812948723867412e-05
1.0092673930261288523e-05
1.0081203302709083094e-05
1.0067924129442158354e-05
1.0056330276333825738e-05
1.0042968814548729943e-05
1.0031363382350344415e-05
1.0017959204521643843e-05
1.000646604823964628e-05
9.9931420893841537757e-06
9.9818361238606487278e-06
9.9686613648075984623e-06
9.9575355591637211821e-06
9.9444538321214650113e-06
9.9334553793486547269e-06
9.9203134138880631927e-06
9.9092968115333890464e-06
9.896153095362728315e-06
9.885118062372410001e-06
9.8720022809588195927e-06
9.8611558287784927218e-06
9.848207959928912837e-06
9.8374873946809086666e-06
9.8246245010065286852e-06
9.8139320279843933096e-06
9.8010445821503474939e-06
9.7903504420780726263e-06
9.7772842777132093673e-06
5.258681478605081676e-07
6.1704113809919700502e-07
7.2461297498163957503e-07
8.4921656421556692718e-07
9.3005358823768219531e-07
9.9813099620145896938e-07
1.0947880851931471891e-06
1.2041846435420722157e-06
1.3034281479246773016e-06
1.3747350982771610316e-06
1.4448600052557497404e-06
1.5642434177747289878e-06
1.7054253816986468225e-06
1.8040051787091530798e-06
1.8581114527134843129e-06
1.9323886037972517313e-06
2.0402475770446348979e-06
2.1588574014437920521e-06
2.2614610410879701881e-06
2.322253104444232692e-06
2.3732053833183646794e-06
2.4497650793416654451e-06
2.5285804074981595533e-06
2.5781953475169301263e-06
2.6113908994420853598e-06
2.6694945819684031913e-06
2.8186938047788901835e-06
3.0119101562668063907e-06
3.1135393586653483704e-06
3.1612274456298717399e-06
3.2396075254386804326e-06
3.3609454890305389564e-06
3.4675819501136099996e-06
3.5258201709037243171e-06
3.5630455127299716684e-06
3.6239129201379888741e-06
3.7168777817103672699e-06
3.812897281488813542e-06
3.8801063867390561519e-06
3.9167572105584258716e-06
3.9541763098950788924e-06
4.0322708010045025975e-06
4.1621631053731705647e-06
4.3153988909389472516e-06
4.4625843544713484766e-06
4.5819330093429669334e-06
4.6643343163341883102e-06
4.711762399105136284e-06
4.7355516573917632187e-06
4.753054616511041212e-06
4.7825586903031255942e-06
4.8337009179578924371e-06
4.9046691683014012069e-06
4.9854065247341845498e-06
5.0647237851840951639e-06
5.1372683426444240069e-06
5.200988846758894335e-06
5.2532295796827498403e-06
5.2915163053903418273e-06
5.3193662389944251282e-06
5.3508226055950866229e-06
5.408055203162299312e-06
5.5046919410004737961e-06
5.6326255586488524764e-06
5.7667608871096235254e-06
5.8807767449979386523e-06
5.9610500699095223966e-06
6.0133677248092452347e-06
6.0542429486321152059e-06
6.1005782446898371258e-06
6.1617325310554977796e-06
6.2372269097543178503e-06
6.3191632056798276173e-06
6.3975836239703524184e-06
6.4648113395787768428e-06
6.5165509696020514486e-06
6.5508539908642975967e-06
6.5691884683813611505e-06
6.5768488488334664742e-06
6.5821444331332058607e-06
6.5947141714807136362e-06
6.6301172374875318451e-06
6.7296255027261921413e-06
6.8676849370594687076e-06
7.0023098457975390055e-06
7.1200899782453021039e-06
7.2107897040337419638e-06
7.27079933635826364e-06
7.3035454524371763179e-06
7.3176866206609639525e-06
7.326951311011159227e-06
7.3470060731984958497e-06
7.3985483505446140507e-06
7.5331275384853588523e-06
7.7085765563464003286e-06
7.8694262810113023118e-06
7.9892083882328332949e-06
8.0546185519041458266e-06
8.0727603436944220217e-06
8.0672204184590611312e-06
8.0488033349794364189e-06
8.0323003777301137514e-06
8.0326819440745930219e-06
8.0840934742339183838e-06
8.297318178111781067e-06
8.5372003078748568447e-06
8.6735207398437896593e-06
8.7334345895471300294e-06
8.7491181859746164541e-06
8.7473109024404444646e-06
8.7417490153015912858e-06
8.7363746024154822557e-06
8.7340873979472452766e-06
8.7440695885741740563e-06
8.7800864137682145853e-06
8.8092468723771279345e-06
8.8236203991699796993e-06
8.8247310188810930382e-06
8.8194389060808248316e-06
8.8090115140848666771e-06
8.7887452238213776526e-06
8.7754029032297288076e-06
8.7708624069623788863e-06
8.7880526453971168261e-06
8.8914059046972151985e-06
9.0832663421064534188e-06
9.2188693612879082738e-06
9.3020806655008614962e-06
9.352945957358042953e-06
9.3911892320008731659e-06
9.4313903327621705194e-06
9.481954071186738536e-06
9.5449176103036054213e-06
9.616764211983431368e-06
9.6904539045938737339e-06
9.7570027773131287515e-06
9.8068180411781204127e-06
9.8344179729443610515e-06
9.841315884134595792e-06
9.8351815416911849593e-06
9.8215111657595290004e-06
9.7853312790552542908e-06
9.7521787178762837185e-06
9.7398875758892567431e-06
9.7386348623427661377e-06
9.770053707517230247e-06
9.8842638231706670993e-06
9.9926582620509097054e-06
1.0062872675464473818e-05
1.0112102185671539487e-05
1.0157547543883593361e-05
1.021064155515546886e-05
1.0276357037488134384e-05
1.0355352616616295296e-05
1.0443815521682365231e-05
1.0533268779446071213e-05
1.0613167080996351618e-05
1.0671315697671277301e-05
1.0701287099954088843e-05
1.0705596328004855891e-05
1.0697146466921877872e-05
1.067493733915695191e-05
1.0610240207203528806e-05
1.0540839721491894408e-05
1.0502472970948791909e-05
1.0486498161942419755e-05
1.0480547944692538507e-05
1.0490055699879043244e-05
1.055675963127632679e-05
1.0712318389392887357e-05
1.0836709426532309424e-05
1.0911495139889392108e-05
1.0950087192385532666e-05
1.0980084408732761742e-05
1.1026507966499091826e-05
1.1102166404408344292e-05
1.120491500627730639e-05
1.1316860131467489683e-05
1.1415900313305408755e-05
1.1484188769833632366e-05
1.1515934058030398977e-05
1.1519032443198720927e-05
1.1509002286670376051e-05
1.1481570251242774128e-05
1.1394460002551987958e-05
1.1281786366917470529e-05
1.1209084733932792027e-05
1.1173123343489049176e-05
1.1160689320690064976e-05
1.3044915649424357307e-05
1.292306890206974728e-05
1.2711386579685305225e-05
1.2589745821644351533e-05
1.2550411087942808897e-05
1.2547767776239556541e-05
1.2595504604197394375e-05
1.2775866533045756278e-05
1.2943511115588376631e-05
1.3034110410711615809e-05
1.307521897775523776e-05
1.3094508803063829448e-05
1.310768153844345863e-05
1.3116064974680110579e-05
1.311569482730583356e-05
1.3107515618634135431e-05
1.3091696167906661228e-05
1.3045216806539282404e-05
1.289827999559874238e-05
1.2692492076359959861e-05
1.2539550066645815292e-05
1.244072947036159892e-05
1.238560216846138295e-05
1.2358870643692043573e-05
1.2346093301862379061e-05
1.2337729773319371183e-05
1.2331282801314275238e-05
1.2330725668164817252e-05
1.2334508585329457208e-05
1.2334339303974549271e-05
1.2330715785190178731e-05
1.2323875326096821303e-05
1.2314994608755343923e-05
1.2304139801503657147e-05
1.2284679686975782476e-05
1.2238656797605149251e-05
1.2181756584067362879e-05
1.2136002437734112218e-05
1.2101269298232647645e-05
1.2075581242356370039e-05
1.2056849204060123769e-05
1.2042776000609870814e-05
1.2031247202911195712e-05
1.2021385980916511854e-05
1.2012536932644397579e-05
1.2004258824288313202e-05
1.1996698443736079486e-05
1.1990324202702397536e-05
1.1987609533161076834e-05
1.1993830135434265313e-05
1.200077383952585501e-05
1.2005244593455396395e-05
1.2007888827039288001e-05
1.2008987704033735627e-05
1.2009066968944229515e-05
1.2008002843146612398e-05
1.2005966098849665062e-05