/*--------------------------------*- C++ -*----------------------------------*\
  =========                 |
  \\      /  F ield         | OpenFOAM: The Open Source CFD Toolbox
   \\    /   O peration     | Website:  https://openfoam.org
    \\  /    A nd           | Version:  12
     \\/     M anipulation  |
\*---------------------------------------------------------------------------*/
FoamFile
{
    format      ascii;
    class       volScalarField;
    location    "0.009";
    object      p;
}
// * * * * * * * * * * * * * * * * * * * * * * * * * * * * * * * * * * * * * //

dimensions      [1 -1 -2 0 0 0 0];

internalField   nonuniform List<scalar> 
75962
(
101270.71233379183104
100969.21708055509953
100898.6605413567886
101060.30686889484059
100980.7808638940769
100859.80688633352111
100821.45743395802856
100832.0883861106704
100868.03928055353754
100899.2882477882813
100881.85953373939265
100849.41644726444792
100901.27179202767729
101048.43672164634336
101143.867660821139
101075.99899891520909
100923.89953921288543
100829.38706408113649
100828.26238809789356
100854.73304276143608
100851.15786384844978
100832.69658224274463
100844.99216553903534
100914.69814462481008
101007.59579008763831
101060.16590204044769
101052.854096921772
101030.3544244904042
101017.26190650193894
100997.85833284100227
100951.22365079872543
100889.99237360144616
100851.8712904779095
100879.77645990907331
100981.35910035762936
101083.60501677026332
101110.95428053756768
101076.38059082831023
101032.30674044264015
101003.86325790519186
100991.00609266439278
100988.97968299235799
100981.93991966485919
100966.30942257093557
100952.57461927570694
100938.38178221520502
100908.34797411604086
100868.55549559261999
100857.33777310544974
100898.8366456356016
100966.14073256056872
100996.20280192379141
100960.0737767550454
100886.04349468275905
100824.74173933753627
100802.26574414156494
100818.19356728343701
100858.25991618430999
100903.51772478727798
100937.95166791943484
100953.10912084918527
100950.93077579814417
100947.11673697312654
100949.03166674324893
100950.15420554393495
100939.76072122457845
100922.185631508808
100908.85996693935886
100901.96138788046665
100884.37303910523769
100854.52677134977421
100823.71353770403948
100806.44970868663222
100810.09173700711108
100820.84918791394739
100833.68402322934708
100856.16739645204507
100885.86324137054908
100908.92912657257693
100915.47466107738728
100906.73977887276851
100889.91952801555453
100872.16568439867115
100858.43900304059207
100854.42555517340952
100863.94015903858235
100882.39048048635595
100898.82676231132064
100905.3348255824676
100900.41714348185633
100887.81468780292198
100871.58858742976736
100858.55646546997014
100857.49113444544491
100872.62180693994742
100901.13311413829797
100928.86927978217136
100937.21859963807219
100914.54885966601432
100865.64945126570819
100810.83459510102693
100771.25753086491022
100757.12771997883101
100765.99086693867866
100790.2659446222242
100824.23693127246224
100863.08139249228407
100897.86800495273201
100920.93450053381093
100931.85076311670127
100939.3610309294163
100950.17515395938244
100963.76856179516471
100971.86082716363308
100966.23179212429386
100945.3239082096552
100916.75911809796526
100892.04523623842397
100877.58270467087277
100873.08578213116562
100868.22514572937507
100856.56737302904367
100836.68131095054559
100813.98337028571405
100794.33744843839668
100779.89250479824841
100770.09417135186959
100765.52876392760663
100771.22168037761003
100792.56885776387935
100825.82713548878382
100858.06455590782571
100875.44089051718765
100872.91189481888432
100856.51177203016414
100836.5913971249538
100820.545810626616
100812.018427820949
100811.70137197952135
100817.98702465186943
100826.7664917512011
100832.88309636064514
100833.70115993120999
100831.83661708059662
100833.49758456056588
100842.77535431120486
100859.23488323829952
100877.8387282146432
100891.17730579180352
100893.79594813220319
100885.77261929291126
100873.0459882299765
100864.0767650003545
100864.90488586961874
100874.83617221334134
100888.64463074671221
100899.41447617334779
100902.31525754246104
100896.52073662473413
100883.83319270788343
100868.34384998360474
100855.38348798113293
100850.35376424225979
100854.9602555950114
100865.33575952502724
100874.11394006595947
100874.24555339438666
100863.2735932670912
100844.72264059669396
100826.28068120856187
100816.43732765414461
100820.734192686592
100839.59169407044828
100867.48673351423349
100893.06548513189773
100904.31020524032647
100893.30405969618005
100860.6692636788357
100814.87407854957564
100768.18353844362719
100731.48041238397127
100711.28348405713041
100709.32725452540035
100721.83752025327703
100739.78657940251287
100752.13547771592857
100750.890619569298
100735.73786051585921
100743.16414572289796
100742.82485013837868
100754.29696086786862
100774.13480826753948
100796.2844465472881
100814.74730917302077
100825.67751942468749
100828.2178942017199
100824.32975618584896
100816.92935813989607
100808.63723959393974
100801.56678057755926
100796.82906945816649
100794.01252010268217
100792.03295159943809
100789.56878405968018
100785.82063819460745
100781.23767637491983
100776.87422279462044
100774.46862784771656
100774.57670950093598
100777.03095968489652
100780.8041896889481
100784.38709525609738
100786.73081657373405
100787.51702501863474
100787.06617424410069
100785.65386050226516
100783.39160571612592
100781.10921248569502
100779.99344296623894
100782.38897426426411
100790.23640165834513
100804.89538367981731
100824.86376764948363
100845.13135395709833
100859.20533294521738
100861.96014820509299
100852.18033564164944
100833.46862533819512
100814.10141351351922
100803.63729591634183
100808.98648573076935
100831.47894591328804
100865.66085411062522
100900.66686745951301
100925.01259208726697
100931.12061906016606
100917.83761172925006
100890.3114498120849
100857.8713734352059
100830.10370466257154
100813.38700611505192
100809.62185034369759
100816.74000480920949
100830.30855463929765
100846.16641415610502
100861.99395920259121
100877.11448459072562
100891.70662073676067
100905.58923621752183
100917.59438096077065
100925.91664798797865
100928.72115227172617
100925.25976850610459
100916.43794463924132
100904.73608706530649
100893.53982254014409
100886.15300021789153
100884.89587993663736
100890.52879467842286
100902.50248500108137
100918.97868816503615
100937.45342111153877
100955.04736705185496
100968.81473661812197
100976.43538849776087
100976.93046316620894
100971.11157968292537
100961.37195206573233
100951.1995050432306
100943.94535764283501
100941.79871350467147
100945.43297414567496
100953.86291531029565
100965.2131520028197
100977.97753611500957
100991.39906939478533
101005.229992492561
101019.18801838948275
101032.30618592711107
101042.73449714291201
101048.27437141310656
101047.18868379217747
101038.85697535442887
101024.09445240614878
101005.05609668660327
100984.87044178953511
100966.93325687409379
100954.03638172541105
100947.6566441567993
100947.52078929553682
100951.40132497018203
100955.51275672325573
100955.58464041523985
100948.38426548501593
100933.00219231355004
100911.26606278748659
100887.17087956787145
100865.48542331320641
100850.16401366406353
100843.1733058289683
100843.95399692580395
100849.71840866406274
100856.67079731932608
100861.4222760777775
100861.89003201310697
100857.62107782396197
100849.69818442605902
100840.32048789635883
100832.14731798636785
100827.50407119785086
100827.68682292595622
100832.63333238307678
100841.04596991754079
100850.73484816252312
100859.17086625385855
100864.22565876152657
100864.84174418941257
100861.22686989163049
100854.64228027082572
100846.85045812111639
100839.61183806565532
100834.32118835669826
100831.74948186098482
100831.94086985153263
100834.27685876446776
100837.67137215814728
100840.98871996228991
100843.19737241258554
100843.69135243668279
100842.33227457750763
100839.48678642295999
100835.7858554143022
100831.95431076985551
100828.22337210303522
100824.29757433591294
100819.9940230071079
100815.28017551907396
100810.25853079205262
100805.39785394574574
100801.46997822754201
100799.18146808350866
100799.04096269069123
100801.25962411642831
100805.53683147252013
100811.08456959199975
100816.8330333987833
100821.42248713249865
100823.36291344903293
100821.33776155189844
100814.50041008193512
100802.60656773320807
100786.41124474306707
100767.82617684271827
100749.62923274991044
100734.87199848063756
100726.20892565883696
100725.50679971792852
100733.16974097496131
100747.93690533720655
100767.28651836659992
100788.08189124397177
100807.26002100986079
100822.40044415050943
100831.9915273613733
100835.37978833573288
100832.52335661480902
100823.7194820632285
100809.56416571776208
100791.10906739924394
100769.94337133449153
100748.10365362926677
100727.77581597138487
100711.00136284231849
100699.33638598152902
100693.64980678599386
100693.99375816030079
100699.70433830213733
100709.66214897946338
100722.53623140785203
100736.96590585479862
100751.58384699880844
100765.0035410260607
100775.83751908015984
100782.91727195087878
100785.59625034192868
100783.83433931610489
100778.20613022854377
100769.7907154566783
100759.88625029996911
100749.68626259021403
100739.95989898743574
100730.97080806177109
100722.60629585866991
100714.62227009552589
100706.94509649644897
100699.9379588051961
100694.4644990387751
100691.62055889975454
100692.27136205580609
100696.7131723415223
100704.51465186059067
100714.55500732277869
100725.39011176790518
100735.74073947397119
100744.83330742816906
100752.56931500202336
100759.46926556355902
100766.38064657829818
100774.08065023405652
100782.92394583910936
100792.63713109451055
100802.34012762828206
100810.8085195927124
100816.84057204393321
100819.51172480464447
100818.28357770192088
100813.1028774381557
100804.48861568250868
100793.4995187746099
100781.49959634810511
100769.82579829724273
100759.50984566599072
100751.17859363780008
100745.07538016761828
100741.09196204964246
100738.81386145154829
100737.58746383423568
100736.65210416528862
100735.33268429704185
100733.21847917806008
100730.29493670329975
100726.94085531735618
100723.78422938070435
100721.48840468667913
100720.52325494754768
100720.98205902200425
100722.51232505965163
100724.39897941962408
100725.76274189117248
100725.83527433217387
100724.16208514540631
100720.65766723427805
100863.2473555154138
100963.04324438705225
101104.57055571761157
101372.07074467402708
101166.12860433146125
100751.67327854128962
100595.42091750958934
100717.58570338461141
100819.89033460820792
100866.45656439826416
100911.81342066358775
100921.77768177405233
100960.1634550630697
101083.90607471446856
101151.75228577316739
101044.80127498623915
100875.84125032559677
100800.29561644080968
100830.33931898760784
100863.84116292232648
100868.76392510141886
100863.67297676946328
100869.68235579304746
100901.43190980024519
100958.09030631298083
101009.32044953775767
101026.70377041725442
101028.91476400729152
101029.6159782220202
101006.04528234769532
100944.05627211250248
100864.0180473922519
100815.24278710654471
100845.29044175575837
100950.72936422165367
101056.61541428812779
101097.44755401962902
101084.40432254808547
101054.08540499536321
101028.28261153603671
101019.05373679603508
101021.77340016355447
101011.03811945399502
100979.50901206441631
100947.25767349127273
100927.21882728379569
100906.37680132230162
100878.43065055258921
100867.78964143473422
100905.95899915057817
100975.79119561659172
101013.12140827308758
100985.18608384233085
100917.24649509301526
100856.53124921406561
100830.7521372034098
100841.13204255003075
100875.06286749607534
100917.07898883649614
100950.697934767275
100964.68632573151262
100959.63865371876454
100949.01059499177791
100940.18130577229022
100923.40922628885892
100896.52442706361762
100873.50581574838725
100867.26402258576127
100863.13480726694979
100842.1641075106163
100811.93904738743731
100796.62732839534874
100813.12239957763813
100848.74883512163069
100874.91900121071376
100883.53291073566652
100885.24225209248834
100893.94866073298908
100909.15405567789276
100920.68582435359713
100915.08267158201488
100890.49970815813867
100856.37210922900704
100829.22336501971586
100820.93197941232938
100832.3976572236279
100853.59245096266386
100871.83124146437331
100878.51054755333462
100874.61096717184409
100864.13577798618644
100850.5674467470235
100841.10378489710274
100843.62852401274722
100862.42382271960378
100890.11541800174746
100909.28548834149842
100904.89620317716617
100874.41794268996455
100829.95850208764023
100792.45946747942071
100773.27720454707742
100770.99897133230115
100776.03153248867602
100786.56681572929665
100807.28324846517353
100840.73525756761956
100880.08290788016166
100913.54670755955158
100933.75834530949942
100943.05225121018884
100947.11385975885787
100949.23592195578385
100946.5104084169725
100934.89016423019348
100916.08075892727356
100898.92787768850394
100892.19737799122231
100897.61789734278864
100905.39697673040791
100902.88806558673969
100882.53006951573479
100846.90554374364729
100807.46014460967854
100774.06944766669767
100750.219539614729
100737.07665770860331
100736.10228553778143
100750.40294238584465
100779.58513569021306
100814.82169681201049
100844.48364104233042
100860.04263202499715
100862.93363617063733
100858.673961595734
100852.10616634786129
100843.78485396197357
100834.0045573614043
100824.61216334573692
100819.09664913073357
100819.08910527203989
100823.78062971873442
100832.23409139065188
100844.91496717071277
100863.34658499497164
100886.3243802798097
100909.28611753514269
100925.95965862901357
100930.72837007427006
100921.98196258921234
100903.74360913867713
100884.07806743473338
100871.4168259207072
100869.62444031781342
100877.78773624477617
100890.76483240263769
100902.6955579547066
100909.33081976264657
100908.47284305804351
100900.37163178724586
100887.61506264822674
100875.40614565361466
100869.1055334295088
100869.75075484756962
100874.07536480018462
100876.27680211377447
100872.26570965340943
100862.29179728952295
100849.09782899344282
100836.77352728541882
100829.64849289861741
100831.56845630091266
100844.61477780486166
100867.15649254560412
100890.64881953867734
100903.72991091929725
100895.99883300690271
100865.30781362814014
100818.46493479138007
100768.02803340707032
100725.93642954248935
100700.32821806766151
100694.06607483973494
100704.64797943533631
100723.97805146708561
100741.11640866094967
100746.76747154687473
100738.00873040223087
100719.74286117196607
100782.12043410286424
100768.31965625568409
100765.98061600129586
100774.47138544912741
100789.93637836414564
100806.70228880069044
100819.73383485386148
100826.59916527471796
100828.09079581424885
100826.82920644470141
100825.79072793076921
100826.15240794874262
100827.6998850966047
100829.38771338880179
100829.68231014008052
100827.04105180865736
100820.67572870170989
100810.773814811997
100799.24133409121714
100788.72694691884681
100782.10247459850507
100780.72516040253686
100784.14005686952441
100790.72518588740786
100797.81004505732562
100803.08770530502079
100804.86530411362764
100802.84588048062869
100797.48724573852087
100790.04642658188823
100782.9321191701456
100778.86513888518675
100780.7790819278016
100790.66185905138263
100808.50449409509019
100831.69824298577441
100855.01665961019171
100871.82025052332028
100877.43810638855211
100871.08043257775716
100856.23257378672133
100840.00761068009888
100831.08163966384018
100836.17629903020861
100857.13708782586036
100888.96653788503318
100921.4668873786286
100943.23151066432183
100946.27872955714702
100929.14085717652051
100897.33083116319904
100860.99190501091653
100830.34817641903646
100811.94897924539691
100807.2617429785023
100813.49233434659254
100825.7925436309597
100840.05206174013438
100854.67196121717279
100870.20642757730093
100887.72393033765547
100907.23821567534469
100926.70801541756373
100942.44126549157954
100950.60062796925195
100948.93371022478095
100938.04887156892801
100921.32944124069763
100903.77291971856903
100890.52309261176561
100885.20863794506295
100889.22681057572481
100901.53147945979435
100919.31126667323406
100938.86518783601059
100956.39206927963824
100968.97086603789649
100975.0332492232119
100974.62368894959218
100969.48425671491714
100962.62559404072817
100957.21868668231764
100955.56020770697796
100958.55896240728907
100965.5717783348955
100974.92668325602426
100985.03597985749366
100995.00875227566576
101004.6986841642065
101014.34841050005343
101023.75929540394282
101031.73652918032894
101036.41535538842436
101036.05849160380603
101029.72985741062439
101017.69410597642127
101001.47742436113185
100983.53048593179847
100966.55192559612624
100952.83104605331027
100943.75346564810025
100939.54064302837651
100939.11873448340339
100940.18898746177729
100939.5870511851972
100934.14659382405807
100921.90663995941577
100903.07724426574714
100880.28967542022292
100857.86231073748786
100840.34782443083532
100830.89414134215622
100830.1628652484942
100836.21296387769689
100845.19910543023434
100852.62298340821872
100854.90555231990584
100850.47486967881559
100840.01318400385207
100825.95601462258492
100811.692238861433
100800.77326271745551
100796.09822113813425
100799.21308680319635
100809.85347158575314
100825.96720215075766
100844.27203313894279
100861.08892934212054
100873.18992651368899
100878.58242951447028
100876.89968070480973
100869.36402999468555
100858.31846714262792
100846.57437601200945
100836.77829218610714
100830.91004897953826
100829.90447673898598
100833.57366592649487
100840.72974019787216
100849.45614325875067
100857.64625442989927
100863.48091930444934
100865.94172953063389
100864.97897151045618
100861.37728389113909
100856.33207934087841
100850.79347809983301
100845.28495476869284
100839.72510600395617
100833.71126302084303
100827.02483549354656
100819.89682266078307
100813.07749373887782
100807.67936639602704
100804.80652819381794
100805.26797908464505
100809.1546119183331
100815.7728618572437
100823.61676210841688
100830.65911318390863
100834.73923196442774
100833.88494005402026
100826.89463767480629
100813.87607374988147
100796.18728535428818
100776.17160463467008
100756.78199707755994
100741.16450984466064
100732.05198694186402
100731.07153283570369
100738.41784166111029
100752.86985687950801
100772.04897434262966
100792.98039105518546
100812.6911791893217
100828.71752819830726
100839.34234034088149
100843.69106578793435
100841.63050306342484
100833.47945928518311
100819.83983110864938
100801.63948157348204
100780.23671113452292
100757.45222362614004
100735.40444344936986
100716.23997831749148
100701.74351663027483
100693.0130902385572
100690.34465349036327
100693.23755215195706
100700.57828814310778
100710.86367805846385
100722.43004636481055
100733.61346010907437
100742.9234801253042
100749.19638535175181
100751.66952349813073
100750.13018284660939
100745.00702485268994
100737.26113220669504
100728.15420009069203
100718.86478093470214
100710.19175581235322
100702.42407635775453
100695.35737534602231
100688.53319954802282
100681.59629926044727
100674.58905054970819
100668.04421934240963
100662.9125756957219
100660.35693374846596
100661.39019390085014
100666.51343804586213
100675.5279159280326
100687.50594973741681
100701.01617454460938
100714.57956868186011
100727.08703930277261
100737.98620481271064
100747.23561946534028
100755.09836397455365
100761.91754350249539
100767.97786108362197
100773.41408530726039
100778.16491177007265
100781.98714405970532
100784.53224644379225
100785.44363929345855
100784.41905499562563
100781.22220590700454
100775.74560289634974
100768.12975407432532
100758.84781751327682
100748.66620118456194
100738.48047264803608
100729.12202407474979
100721.22176969997236
100715.13477021669678
100710.89360260961985
100708.17849151160044
100706.37552811022033
100704.74458818441781
100702.65353906205564
100699.75655062648002
100696.08065885221004
100691.99761686720012
100688.0783944864379
100684.87800519568555
100682.7141739869403
100681.54697170454892
100680.99901933538786
100680.48459596491011
100679.4216580670618
100677.4164770571806
100674.31299884324835
100997.33473129082995
100976.52040545885393
100795.58117937293719
100764.8720439227327
100831.82718034520803
100771.80629714926181
100712.2773526255769
100810.19024207929033
100931.09158988158742
100883.21009148744633
100817.52433131440193
100830.64765185691067
100897.68740766758856
101017.32070817760541
101069.97924492591119
100967.08609993955179
100823.1177548810665
100770.53725058687269
100811.53667345561553
100882.65426304860739
100934.37924635667878
100941.68723688101454
100912.35313553754531
100894.17645706915937
100933.55001649125188
101003.93090829496214
101037.31611246595276
101032.64150936933584
101022.8990760428569
100999.17427592496097
100937.17308696017426
100853.95730571261083
100809.13855961384252
100844.83817620422633
100938.91200979371206
101027.79043623676989
101069.98472806184145
101068.23401748413744
101041.82675637661305
101013.12879281613277
101007.49378627775877
101016.25610774056986
101006.70801740838215
100969.35814779778593
100930.79536631212977
100914.94602506178489
100917.11609144110116
100916.741118047692
100920.05221864159103
100951.58226093399571
101002.4943603798456
101029.22782014214317
101008.66154080623528
100957.74847324987059
100903.70267789630452
100866.4389689216332
100861.50201493116037
100892.70314524666173
100939.24739746756677
100964.84659319576167
100951.3914282459009
100918.69824270175013
100892.77061802175012
100879.17347576879547
100862.65833364007995
100843.66694209021807
100833.78252495611378
100832.13888636403135
100819.76294849165424
100792.13564087501436
100769.75886620179517
100775.96224719203019
100816.56715840387915
100863.0091976254771
100882.43573041881609
100874.87686685528024
100863.09845466124534
100870.76582566929574
100898.8807124599698
100922.80578963008884
100918.52452471407014
100880.84127781170537
100830.63946981151821
100796.80067426990718
100792.11809534711938
100809.42587672016816
100831.08676280570216
100843.35026797579485
100843.49883566894277
100836.78976225679799
100827.53514751422335
100817.72276505785703
100813.80754772751243
100823.8452158258151
100849.41696274792776
100877.56185645340884
100889.25210893225449
100875.20992211403791
100842.26689173668274
100808.21406305955315
100787.31744125639671
100781.50533832921064
100780.5111334730318
100775.88175361743197
100772.73312306456501
100784.32263929577312
100818.60461852820299
100867.3752249260142
100911.25431580809527
100935.81205122801475
100937.60803870171367
100927.67295801226282
100916.79905197284825
100908.42807554616593
100899.84187552241201
100891.18543707013305
100887.87383503794263
100894.66849673214892
100909.01913033117307
100919.42282199795591
100912.41528389629093
100883.2070868366136
100838.23376905547047
100790.68082191592839
100751.22892939599114
100724.76021732861409
100713.33642986752966
100719.43782867956907
100743.51765504269861
100778.2229774187872
100812.75906995822152
100837.63551330019254
100852.18123722363089
100861.26135377681931
100868.14550403658359
100872.79566557935323
100870.01640530228906
100857.52473254640063
100839.23350547660084
100821.81556460015418
100811.6097004628682
100813.07644896500278
100828.43570900266059
100857.11989314616949
100893.78743194886192
100929.69627959917125
100955.80683373317879
100966.00617440647329
100958.8842442009045
100938.05302901600953
100910.39093840711575
100884.72285361446848
100868.36412898742128
100865.5624200096936
100874.51828207369545
100890.50232236407464
100907.47294759096985
100919.81534873542842
100923.80418847300461
100918.88459603951196
100908.2442681700486
100897.44092126090254
100891.39544679386017
100889.47829106633435
100887.79907303216169
100883.1156159947277
100875.76924190107093
100868.23227686317114
100861.8801904507709
100856.33568492245104
100850.91678022906126
100847.64160385083233
100850.76732932386221
100863.11643593736517
100880.6578745492443
100893.00734005108825
100888.80331462976756
100862.89684800009127
100819.44584478075558
100769.34601194028801
100724.91443811201316
100694.94237848215562
100683.77788141029305
100690.40458004441462
100709.1626843373524
100730.26363736530766
100743.78546354702848
100744.09783082321519
100731.91549741229392
100812.85558805597248
100800.73314545894391
100796.72097526978177
100800.25434443086851
100808.11332902326831
100816.26847752716276
100821.794678265127
100824.2522097905894
100825.25477750888967
100827.41593893044046
100832.46197465437581
100840.59342273163202
100849.78797359416785
100857.17874587341794
100860.42888161654992
100857.44693996020942
100847.90076023212168
100833.39744381634227
100816.85524042675388
100802.71075572594418
100794.53796751164191
100793.78508757689269
100799.46473115522531
100808.67446695987019
100817.92755014453724
100824.18297915311996
100825.46357806603191
100821.25699902675115
100812.35888747453282
100801.07986197138962
100790.62961808528053
100784.83337374018447
100786.54938675848825
100797.13111646864854
100815.41909802751616
100838.0905244435271
100860.39439500059234
100877.28684634284582
100885.30359028850216
100884.17856873084384
100876.75772750259785
100868.12885204375198
100864.62200946551457
100871.31636720511597
100889.59374530614878
100915.79450858281052
100941.66186681106046
100957.35952301205543
100955.92285093785904
100936.34145791409537
100903.99320981255732
100868.12202960926516
100838.11541424746974
100819.96245387376985
100814.41454936280206
100818.27101802019752
100826.88136839646904
100836.81921500802855
100847.49938845100405
100860.64983511500759
100878.30380455410341
100900.81230611467618
100925.66897970023274
100947.86997369345045
100961.82661111085326
100963.89859559758042
100953.98260775979725
100935.65697664367326
100914.8603253338224
100897.95611067350546
100889.76741094699537
100892.27312248150702
100904.3313717028941
100922.53704314838978
100942.29751744287205
100959.11369967534847
100969.7616181026533
100973.11035103375616
100970.23208571360738
100963.89777158177458
100957.73201664886437
100954.89007125653734
100957.19662072366918
100964.58294225779537
100975.23766892871936
100986.76966569776414
100997.35132799868006
101006.0681387665245
101012.88844625848287
101018.27146970761532
101022.20866730890702
101023.64532891266572
101021.17422955996881
101013.9721238645725
101002.26039684271382
100987.40074816622655
100971.59004126802029
100957.16963853371271
100945.8310264916654
100938.18647382649942
100933.87125197485148
100931.73967320084921
100930.09157072944799
100926.95011246722424
100920.35604287868773
100908.83062906764098
100892.05645470056334
100871.39279575076944
100849.94815359558561
100831.82005962968105
100820.72295662343095
100818.52273114884156
100824.44319894783257
100835.18057296049665
100845.87239883493748
100851.64904159544676
100849.24539995004307
100838.10133003183
100820.4345947643742
100800.25105480116326
100782.03257416312408
100769.82316522965266
100766.52943215475534
100773.35134076248505
100789.38628246414009
100811.74865684658289
100836.29622577346163
100858.65758281270973
100875.12386114957917
100883.3669473650516
100882.83697200458846
100874.80098222616652
100861.98574140033452
100847.84730896100518
100835.76069124904461
100828.40200700770947
100827.31147854038863
100832.59246199937479
100842.9614357221144
100856.03186891162477
100868.93319143682311
100879.03544048858748
100884.62796256149886
100885.30205854670203
100881.87998775881715
100875.89881740530836
100868.8998575272999
100861.81671733262192
100854.76844486911432
100847.30673912659404
100838.96412002654688
100829.79271718012751
100820.60406811325811
100812.76052538254589
100807.70702329472988
100806.44190521145356
100809.18702600552933
100815.22379867841664
100822.98698942226474
100830.30134007052402
100834.81839839434542
100834.54415689357847
100828.32662659234484
100816.18688344625116
100799.46252633590484
100780.57173148544098
100762.50713401226676
100748.21451677253935
100740.04008460666228
100739.31142233889841
100746.1643156032369
100759.58442307477526
100777.57945074113377
100797.53555982696707
100816.70184159031487
100832.64437711468781
100843.51697544541094
100848.13016653229715
100846.037577799274
100837.48946633495507
100823.2605031420826
100804.50474478889373
100782.69239111385832
100759.59105910241487
100737.15820520883426
100717.34009436097404
100701.81296146885143
100691.65878295325092
100687.20541164955648
100688.00452422550006
100692.90715154989448
100700.2699884155154
100708.23757828994712
100715.02415002862108
100719.16814553312724
100719.78837389832188
100716.71332276522298
100710.46162785503839
100702.09937280257873
100692.91832007726771
100684.11068133822118
100676.52708476186672
100670.45247190845839
100665.57868396346748
100661.18437782058027
100656.44557711256493
100650.82040440697165
100644.39173661114182
100637.91309940244537
100632.61463632430241
100629.86691597985919
100630.80297372075438
100636.02578018755594
100645.50828647540766
100658.6297667180479
100674.29094486344547
100691.10048547964834
100707.63363492362259
100722.66219939866278
100735.30396115640178
100745.03279875830049
100751.64067108945164
100755.22974003906711
100756.20861808847985
100755.23211468092632
100753.08628952869913
100750.51632981664443
100748.01994058715354
100745.71323854586808
100743.31673851731466
100740.27518775526551
100736.0091644537024
100730.2001990260178
100722.94368564893375
100714.71900782546436
100706.22524622858327
100698.19303017744096
100691.21393439808162
100685.61871713395522
100681.39581962800003
100678.19010450835049
100675.4183921971271
100672.47981335221266
100668.95071282572462
100664.68842917303846
100659.82146757854207
100654.65239090888645
100649.52775469888002
100644.72416125846212
100640.36941973477951
100636.43472761276644
100632.78451973464689
100629.26787900086492
100625.80216335518344
100622.37164188305906
100618.94925872754538
101125.61860085885564
100848.55719328622217
100833.02167140928213
100902.70878840541991
101024.03308066465252
101008.59003463284171
100925.47734321247844
100922.56573977544031
100965.1035060120048