/*--------------------------------*- C++ -*----------------------------------*\
  =========                 |
  \\      /  F ield         | OpenFOAM: The Open Source CFD Toolbox
   \\    /   O peration     | Website:  https://openfoam.org
    \\  /    A nd           | Version:  12
     \\/     M anipulation  |
\*---------------------------------------------------------------------------*/
FoamFile
{
    format      ascii;
    class       volScalarField;
    location    "0.009";
    object      pPrime2Mean;
}
// * * * * * * * * * * * * * * * * * * * * * * * * * * * * * * * * * * * * * //

dimensions      [2 -2 -4 0 0 0 0];

internalField   nonuniform List<scalar> 
75962
(
1036640.7867088317871
1017333.577693939209
1009385.1328525543213
1003692.8059749603271
999219.06200981140137
995555.86336326599121
992186.41330718994141
988912.49267387390137
985628.36873817443848
982315.71531105041504
979033.09577751159668
975879.46933746337891
972839.66348457336426
969781.09687423706055
966693.3277587890625
963780.23268508911133
961212.07077598571777
958942.8138484954834
956788.29452514648438
954614.00230407714844
952418.44011688232422
950261.44231414794922
948189.72343063354492
946178.76419639587402
944207.80588531494141
942319.24945259094238
940608.19292068481445
939141.52316665649414
937917.95460891723633
936896.0378360748291
936068.06995391845703
935438.96204376220703
934965.82301330566406
934545.89066886901855
934045.09060096740723
933385.83362770080566
932621.2888069152832
931866.86763191223145
931167.85666656494141
930508.36645698547363
929859.47742652893066
929190.67348670959473
928485.13787841796875
927745.0625057220459
926963.05561256408691
926119.47818946838379
925213.37614631652832
924263.10081100463867
923265.80021095275879
922158.11646461486816
920871.0639820098877
919417.29396820068359
917878.04911613464355
916324.78042793273926
914775.56033897399902
913206.69416618347168
911583.46612167358398
909883.33470726013184
908104.36786079406738
906268.75458335876465
904425.83072471618652
902629.10610771179199
900905.94720649719238
899250.64959526062012
897643.5472469329834
896079.69177055358887
894557.91452407836914
893074.54601097106934
891619.76703071594238
890195.90964698791504
888820.40768051147461
887494.5659236907959
886200.12382698059082
884906.24030685424805
883601.54778671264648
882290.08234596252441
880965.16569328308105
879607.96689224243164
878211.78357315063477
876785.31963729858398
875350.03508949279785
873931.15788841247559
872545.09258079528809
871197.14841079711914
869881.98277282714844
868587.3720703125
867299.25885963439941
866014.43097114562988
864744.37793731689453
863511.42660140991211
862336.2681827545166
861229.6305103302002
860187.39864349365234
859193.43034172058105
858229.99182891845703
857283.00633239746094
856343.52695274353027
855413.77483367919922
854511.87350463867188
853658.69344139099121
852861.46579742431641
852110.34267234802246
851388.2623119354248
850672.87110900878906
849939.60213470458984
849165.87751388549805
848334.01613426208496
847432.25521469116211
846457.92941284179688
845415.86480331420898
844308.25347900390625
843132.36630630493164
841885.81890678405762
840572.76791763305664
839206.76908874511719
837805.56618118286133
836385.1665210723877
834949.55047607421875
833486.02734184265137
831973.82279777526855
830399.57682418823242
828764.78791046142578
827084.21121215820312
825377.19890594482422
823655.49444580078125
821923.8065013885498
820185.90569496154785
818446.71878433227539
816708.23970413208008
814967.25414657592773
813218.01663970947266
811463.19613075256348
809717.53474617004395
808003.62301254272461
806341.21705627441406
804741.62593078613281
803207.2515697479248
801734.08373260498047
800315.37966728210449
798944.40846633911133
797614.6471996307373
796322.1262149810791
795065.16075897216797
793840.08366775512695
792638.52719116210938
791449.96628189086914
790266.15676689147949
789083.52823257446289
787900.89548492431641
786718.00716972351074
785532.27388000488281
784336.92334747314453
783121.86143112182617
781877.13326644897461
780597.80869674682617
779283.91339492797852
777942.61195373535156
776587.15789413452148
775232.79875946044922
773890.62673187255859
772560.32943916320801
771228.74358558654785
769877.75119018554688
768497.19304275512695
767088.4483757019043
765659.12117004394531
764217.19528579711914
762768.60691261291504
761320.33643531799316
759881.45416069030762
758457.35543251037598
757042.73097038269043
755622.84813690185547
754183.75816917419434
752720.28862190246582
751239.78559684753418
749760.87223243713379
748306.9719409942627
746896.26372337341309
745536.10186386108398
744222.98479270935059
742946.50181007385254
741694.24889945983887
740454.43523025512695
739219.07807540893555
737985.56871604919434
736756.90293121337891
735541.54997634887695
695483.79497528076172
694696.25908851623535
693893.40718650817871
693067.74649429321289
692215.06555557250977
691335.86471176147461
690434.03164291381836
689513.39826583862305
688577.76834487915039
687630.81834602355957
686677.40036201477051
685722.18682670593262
684767.76067352294922
683814.83835601806641
682862.59263229370117
681908.7045726776123
680949.82475471496582
679982.39339256286621
679004.74255752563477
678018.62724304199219
677028.29119110107422
676037.97154426574707
675048.82219696044922
674058.42462539672852
673064.1074333190918
672067.03585433959961
671072.14328765869141
670085.48341178894043
669111.72133636474609
668153.80473136901855
667213.67298126220703
666292.01179122924805
665387.84018707275391
664499.60719871520996
663626.46692276000977
662770.37898635864258
661936.35746192932129
661130.87381172180176
660358.74237251281738
659620.12696266174316
658909.57826232910156
658217.01349067687988
657530.0112133026123
656836.10017395019531
656125.27467346191406
655393.44007110595703
654644.80951881408691
653891.0705623626709
653148.06612396240234
652430.67574691772461
651747.49296760559082
651097.95217323303223
650473.97427558898926
649863.70753288269043
649254.80605888366699
648636.21177291870117
647999.28745079040527
647338.89379692077637
646654.00945472717285
645947.06072235107422
645221.83930587768555
644481.5023250579834
643727.71331787109375
642961.59251594543457
642185.46078872680664
641404.05384254455566
640624.02685165405273
639851.770751953125
639090.5142936706543
638338.840087890625
637591.88430976867676
636843.08150100708008
636085.28038215637207
635311.99662017822266
634519.42382621765137
633708.83330345153809
632886.65036582946777
632061.47498512268066
631239.97031211853027
630425.00203895568848
629616.12555503845215
628810.4334831237793
628002.69308662414551
627185.09641647338867
626348.72369003295898
625486.46347999572754
624594.96246719360352
623674.76286506652832
622729.19190979003906
621762.269287109375
620776.80353164672852
619774.27836036682129
618756.73159599304199
617728.82240104675293
616697.82730674743652
615671.61028099060059
614655.85964965820312
613652.54272842407227
612660.54184150695801
611677.92954063415527
610703.67435836791992
609737.5129566192627
608779.27769088745117
607829.23999977111816
606888.9637508392334
605961.269775390625
605049.48084259033203
604156.73652458190918
603285.09601020812988
602434.1722297668457
601600.26836776733398
600777.64898872375488
599961.14141654968262
599148.04282188415527
598337.90575408935547
597531.25454711914062
596728.95280838012695
595932.61006736755371
595145.4947452545166
594372.43528366088867
593617.71814727783203
592882.17612648010254
592162.10656547546387
591451.06664657592773
590742.88554382324219
590033.58979034423828
589321.64228439331055
588607.25787353515625
587891.7123966217041
587177.04601287841797
586465.91726112365723
585760.77592849731445
585062.36980247497559
584368.54890632629395
583674.41754913330078
582973.98399925231934
582261.91156196594238
581534.18980598449707
580787.66008186340332
580019.75458526611328
579229.35294914245605
578418.31371307373047
577592.10197830200195
576758.64962387084961
575925.34655570983887
575095.94983863830566
574269.61990165710449
573442.53647613525391
572610.73393440246582
571771.66412925720215
570923.44973945617676
570063.30734443664551
569187.64163970947266
568293.94463539123535
567382.6257495880127
566457.23628616333008
565522.90544509887695
564584.50161552429199
563645.91610336303711
562710.62700653076172
561782.82642555236816
560867.86696434020996
559971.72882270812988
559099.42260360717773
558253.43675231933594
557433.24527931213379
556635.87721633911133
555856.98225212097168
555091.12570190429688
554332.42545890808105
553575.2336597442627
552815.26970863342285
552050.68649864196777
551282.55800437927246
550514.56887054443359
549752.15132522583008
549001.39192962646484
548267.85379409790039
547555.69868850708008
546867.68659019470215
546205.92311477661133
545572.48124694824219
544968.98686981201172
544395.26206207275391
543848.02345275878906
543320.95297813415527
542806.40963745117188
542297.75422286987305
541790.9016170501709
541284.23882102966309
540777.10887718200684
540268.04405403137207
539754.25774955749512
539232.760009765625
538702.35243606567383
538164.95230674743652
537625.30093002319336
537089.35760688781738
536562.47915649414062
536048.14652061462402
535547.60848236083984
535060.19479751586914
534583.94932556152344
534116.35295104980469
533654.98037719726562
533197.7774658203125
532743.03808403015137
532289.35404586791992
531835.37454986572266
531379.14717292785645
530917.28122520446777
530445.1092357635498
529958.27160453796387
529454.7495174407959
528935.55539321899414
528403.33716583251953
527860.18063163757324
527306.43314743041992
526741.1386661529541
526163.24343681335449
525572.3448371887207
524968.96296119689941
524354.64888954162598
523732.13299560546875
523105.44681739807129
522479.55981826782227
521859.54059791564941
521249.38482666015625
520650.96128082275391
520063.56412506103516
519484.59354019165039
518911.19988632202148
518342.21439170837402
517779.02889633178711
517224.69004821777344
516681.90091514587402
516151.39777565002441
515631.81720542907715
515120.9174976348877
514616.97353935241699
514119.27545928955078
513627.85121154785156
513143.30630874633789
512667.03803253173828
512201.20934867858887
511747.97997093200684
511308.61007881164551
510883.15055465698242
510470.89518547058105
510071.13466644287109
509683.54828453063965
509307.96333122253418
508943.91442489624023
508590.25794410705566
1054363.2653732299805
1029256.8022899627686
1018767.1578197479248
1010607.947509765625
1004197.643045425415
999507.325439453125
995749.35239791870117
992190.24911689758301
988604.33478546142578
985030.94022560119629
981412.25842475891113
977797.16331672668457
974256.78615188598633
970730.82674598693848
967224.64267539978027
963975.04776191711426
961186.75015830993652
958787.38595199584961
956595.71712303161621
954501.4416675567627
952478.58061218261719
950509.31109428405762
948585.49219703674316
946689.58357048034668
944788.72109413146973
942895.61664009094238
941083.05889892578125
939423.48543167114258
937953.58173942565918
936694.68442153930664
935687.74464797973633
934960.91253852844238
934473.3798713684082
934101.87009048461914
933681.31423759460449
933123.14740753173828
932460.48105049133301
931768.6775951385498
931075.0882511138916
930374.07122993469238
929646.24908638000488
928863.62047958374023
928017.77999687194824
927135.94155120849609
926233.44789886474609
925291.97410583496094
924297.08222007751465
923257.40565490722656
922173.29741668701172
920999.17389678955078
919666.1523494720459
918167.92691421508789
916585.41524887084961
914999.67284393310547
913429.26823425292969
911842.07089424133301
910200.98022079467773
908481.06089401245117
906676.52771186828613
904813.86063194274902
902947.98148918151855
901146.56940841674805
899444.63409233093262
897833.51872253417969
896297.73065757751465
894831.75038909912109
893427.75813484191895
892062.63811492919922
890718.52021980285645
889405.26294326782227
888141.48369979858398
886913.41456413269043
885681.63872528076172
884411.60513305664062
883106.05084609985352
881790.22552680969238
880476.44007110595703
879151.21836280822754
877793.09518432617188
876396.04523468017578
874974.09165382385254
873561.9682731628418
872194.46530723571777
870884.2938117980957
869614.01918601989746
868356.17887687683105
867094.55697631835938
865833.42300796508789
864590.5204963684082
863387.82645797729492
862241.72414016723633
861157.75651931762695
860127.99190902709961
859134.39766502380371
858158.53393173217773
857186.91535186767578
856220.88072967529297
855273.56572341918945
854363.33592414855957
853500.27670288085938
852673.78867721557617
851867.28306007385254
851069.236083984375
850273.4337043762207
849473.17009353637695
848652.76611328125
847788.86713027954102
846860.60552787780762
845856.30748176574707
844778.94606018066406
843636.52700233459473
842434.7585620880127
841177.26710510253906
839867.82062149047852
838515.82298278808594
837136.40180015563965
835741.5794506072998
834326.79120826721191
832869.26080131530762
831343.84308242797852
829746.07345008850098
828088.89987182617188
826397.40328598022461
824694.40680694580078
822991.17354583740234
821287.9567928314209
819581.04952621459961
817866.25887107849121
816139.33146476745605
814395.79398155212402
812636.70006561279297
810873.88875389099121
809126.18674850463867
807410.35895729064941
805735.41784477233887
804107.23084259033203
802533.02620124816895
801018.42716407775879
799565.65053367614746
798173.18670082092285
796835.26636695861816
795545.13351249694824
794294.1191291809082
793069.14070701599121
791851.96968269348145
790628.29176139831543
789396.88341903686523
788167.04147529602051
786949.97618865966797
785751.38429641723633
784569.03728866577148
783393.01336669921875
782208.55894470214844
781003.67341613769531
779770.28314590454102
778505.81832695007324
777214.78976821899414
775908.4222412109375
774601.25103950500488
773304.02603149414062
772016.23591613769531
770725.8951244354248
769417.91529083251953
768084.61738777160645
766728.2102222442627
765357.04240226745605
763978.10427093505859
762592.35115432739258
761197.47390556335449
759794.66358947753906
758389.46346855163574
756984.81438827514648
755576.99151420593262
754157.45402908325195
752718.98663330078125
751261.82398986816406
749798.1368579864502
748349.98958206176758
746939.37920188903809
745578.72285270690918
744268.49165153503418
742998.85602760314941
741755.31899261474609
740522.42305564880371
739289.13411521911621
738051.13768577575684
736811.49462890625
735579.6975040435791
734368.04584121704102
696393.88321876525879
695587.72469329833984
694781.11152076721191
693963.83058166503906
693127.23337364196777
692267.26195526123047
691385.3073616027832
690485.84015464782715
689572.52497863769531
688646.40875816345215
687707.75882911682129
686758.20588874816895
685801.32612037658691
684841.22441291809082
683881.42893600463867
682923.56279182434082
681966.57072257995605
681007.37945365905762
680043.10841941833496
679073.50582885742188
678101.15979766845703
677130.18841552734375
676162.93530654907227
675198.17031478881836
674231.70755767822266
673259.66378402709961
672282.50376129150391
671305.76022529602051
670336.92748260498047
669381.88317489624023
668443.58050918579102
667522.98972320556641
666619.50758361816406
665731.37926483154297
664857.24509811401367
663997.90910720825195
663156.23366928100586
662336.25601196289062
661541.7835578918457
660774.72205352783203
660034.15022850036621
659315.79605484008789
658612.16686820983887
657913.26688003540039
657207.83023452758789
656485.85822296142578
655742.52210807800293
654980.93698501586914
654212.26144599914551
653452.32320785522461
652716.05126190185547
652012.25453948974609
651341.80439376831055
650699.11076164245605
650074.61007118225098
649456.58996772766113
648833.20510292053223
648194.66830062866211
647534.61371040344238
646850.08944702148438
646140.16653633117676
645404.64756965637207
644643.7889404296875
643859.36891555786133
643055.61922073364258
642239.38633728027344
641419.6282901763916
640605.95705986022949
639806.41171455383301
639024.56135177612305
638258.17511177062988
637500.48732376098633
636743.09255218505859
635978.11053085327148
635198.65984344482422
634400.26314926147461
633583.29959487915039
632753.77268218994141
631920.34245300292969
631089.68295097351074
630263.93994140625
629441.56257057189941
628618.8995246887207
627790.25602722167969
626947.85702133178711
626083.67537498474121
625192.11087036132812
624271.43327140808105
623323.37356376647949
622351.7872142791748
621360.96767616271973
620354.38856506347656
619334.30172729492188
618303.01975631713867
617265.03366279602051
616227.65432357788086
615198.73525810241699
614182.94560241699219
613179.82517433166504
612185.39340019226074
611195.85944557189941
610210.20502662658691
609230.08230018615723
608258.26488876342773
607297.71498680114746
606351.37501525878906
605422.09653091430664
604512.7225227355957
603626.14567565917969
602764.28296661376953
601925.81032562255859
601104.97685813903809
600293.36448860168457
599483.89249801635742
598673.82257080078125
597864.89016342163086
597061.26189613342285
596267.19573211669922
595486.22819328308105
594721.85608673095703
593977.91589546203613
593256.9582347869873
592557.58433151245117
591873.5918140411377
591196.10967063903809
590516.93593215942383
589830.63925552368164
589134.71728706359863
588429.04376602172852
587715.72642517089844
586999.12444496154785
586285.09441947937012
585579.03824806213379
584883.5573616027832
584197.03876113891602
583514.1643180847168
582827.6868953704834
582130.30723762512207
581415.64339256286621
580678.45489883422852
579915.01931953430176
579124.07198715209961
578308.02293014526367
577473.22506904602051
576628.47410774230957
575781.82666778564453
574937.58823585510254
574095.48753929138184
573252.52298736572266
572405.81595802307129
571553.80298614501953
570695.24714851379395
569827.89442443847656
568948.65833282470703
568055.32694625854492
567148.09565544128418
566229.38894081115723
565302.61663246154785
564371.11943435668945
563438.07045745849609
562506.94974708557129
561582.22068786621094
560669.60309219360352
559775.29098510742188
558904.44802093505859
558060.14630699157715
557243.12208366394043
556451.9090404510498
555682.8228645324707
554930.00433731079102
554186.15132713317871
553444.04973411560059
552698.4034366607666
551947.05172348022461
551191.11227416992188
550434.21012878417969
549681.46197128295898
548938.49891090393066
548210.54774856567383
547501.78069686889648
546815.32970237731934
546153.75485038757324
545519.47697830200195
544914.42959022521973
544338.87318801879883
543790.17330551147461
543262.5762939453125
542748.50520324707031
542240.81516265869141
541734.75808334350586
541228.41671371459961
540721.41979217529297
540213.11773300170898
539701.71605110168457
539185.09411811828613
538662.53925514221191
538136.04963302612305
537610.07490539550781
537089.81583976745605
536579.38156509399414
536080.83291053771973
535594.29916381835938
535118.68682861328125
534652.41176986694336
534193.81757164001465
533741.10544776916504
533292.08874702453613
532844.28074645996094
532395.44962882995605
531943.98219108581543
531488.38409233093262
531026.19231796264648
530553.47938537597656
530065.92816162109375
529560.87142753601074
529038.43502235412598
528500.71014213562012
527949.67760276794434
527385.94394111633301
526808.97393226623535
526218.09307098388672
525613.42901420593262
524996.05926513671875
524367.79977035522461
523731.18898582458496
523089.86414909362793
522448.91051483154297
521814.47052001953125
521192.10080337524414
520584.39270401000977
519989.6641845703125
519403.00956535339355
518819.33959770202637
518236.24470710754395
517654.96321868896484
517079.09962844848633
516512.30995941162109
515956.69315147399902
515412.54413223266602
514879.04534530639648
514354.95741081237793
513838.82787132263184
513328.92453193664551
512823.66190528869629
512322.55485343933105
511826.947265625
511339.70729446411133
510863.97720718383789
510402.12742805480957
509955.66175270080566
509525.74130058288574
509113.44961929321289
508719.4820728302002
508343.36037826538086
507982.81913948059082
1029600.7685260772705
1014661.7236080169678
1008265.0481357574463
1002849.67799949646
998250.98482322692871
994366.95327949523926
991200.04220771789551
988398.36514282226562
985563.18114280700684
982662.28287696838379
979767.85902214050293
976753.09345817565918
973578.71540832519531
970247.83267784118652
966801.3697509765625
963500.05056190490723
960587.21220588684082
958059.22673606872559
955800.11640548706055
953706.88220405578613
951732.8524341583252
949859.6485595703125
948085.76449012756348
946406.67094039916992
944738.50355911254883
943010.43986129760742
941256.66146469116211
939577.87827110290527
938034.7528133392334
936656.68470001220703
935500.60358428955078
934618.82463836669922
933995.34128570556641
933510.71594429016113
933014.90196800231934
932437.37246131896973
931803.67538261413574
931156.72429084777832
930514.5224552154541
929860.5448055267334
929156.62908744812012
928366.39587020874023
927491.0927562713623
926567.49647521972656
925620.29969024658203
924632.85004425048828
923574.20709419250488
922445.78562164306641
921255.17985534667969
919971.43755340576172
918549.55755615234375
916989.53532028198242
915354.87543869018555
913712.30160522460938
912086.08724784851074
910456.59576416015625
908785.63718032836914
907038.40994262695312
905199.11046028137207
903303.23233795166016
901426.25271987915039
899638.29502487182617
897960.93084335327148
896378.92789459228516
894876.18692970275879
893444.32420349121094
892073.0734920501709
890747.4293212890625
889461.28555488586426
888226.64278411865234
887045.76849555969238
885886.41107940673828
884698.21530151367188
883456.14381408691406
882181.34939956665039
880919.28140830993652
879682.89516830444336
878448.24555015563965
877172.04075050354004
875832.34200477600098
874446.1197566986084
873063.46444320678711
871733.83364868164062
870465.9881420135498
869228.74001502990723
867985.98072242736816
866725.60660171508789
865465.82717323303223
864233.83906745910645
863047.24305152893066
861915.55328369140625
860840.56868171691895
859811.76274299621582
858808.01357460021973
857805.46474075317383
856795.74214553833008
855790.87514686584473
854811.53016090393066
853874.89358711242676
852978.83223533630371
852104.85334968566895
851235.08097457885742
850364.71995162963867
849501.30649185180664
848647.1694221496582
847786.60536193847656
846887.55405044555664
845921.61120796203613
844878.44836616516113
843765.47649192810059
842601.04902267456055
841397.3797435760498
840157.66676902770996
838878.67094421386719
837561.44910430908203
836216.3056583404541
834854.23508453369141
833467.77848625183105
832031.85323333740234
830522.48782920837402
828939.00202369689941
827301.99537658691406
825639.0119800567627
823970.28746795654297
822304.94310188293457
820641.4080867767334
818971.81407737731934
817285.16124725341797
815572.14350700378418
813829.54068565368652
812066.70072364807129
810303.88025093078613
808561.74639511108398
806849.51961135864258
805168.02948379516602
803518.37174606323242
801908.80317306518555
800353.92056655883789
798864.98099708557129
797447.31095123291016
796098.23373031616211
794807.4244441986084
793558.74374771118164
792328.19393539428711
791087.80012702941895
789821.44553565979004
788536.08999824523926
787255.57994270324707
786003.20560455322266
784789.53471565246582
783611.43610763549805
782455.80435943603516
781305.09563446044922
780145.01940727233887
778963.52752685546875
777754.38656044006348
776518.64435005187988
775265.59760665893555
774008.84179878234863
772759.2445011138916
771517.94693374633789
770275.97198677062988
769023.50254440307617
767754.85881042480469
766472.39105796813965
765182.41203117370605
763887.65799713134766
762582.31465148925781
761255.9481086730957
759904.25784111022949
758534.35217475891113
757157.72541236877441
755780.46011352539062
754398.43560981750488
753001.26942825317383
751581.14116477966309
750142.6871509552002
748706.42669868469238
747298.06249809265137
745936.18167877197266
744626.04153060913086
743359.44293212890625
742118.73178100585938
740884.43227958679199
739642.56801223754883
738387.90655517578125
737124.41446495056152
735862.64929389953613
734617.73088836669922
696549.91228675842285
695708.19881057739258
694869.69107818603516
694024.78054809570312
693165.28054809570312
692288.22506523132324
691396.5525951385498
690495.25492858886719
689586.5660400390625
688668.45337677001953
687737.55712890625
686792.30662727355957
685834.12799263000488
684867.56603813171387
683898.98319244384766
682932.83021926879883
681970.12043380737305
681009.37421035766602
680049.15600776672363
679089.600830078125
678133.22464370727539
677182.6313591003418
676238.65499496459961
675299.29327392578125
674360.13292121887207
673417.14124870300293
672470.0887336730957
671524.27760124206543
670587.3155574798584
669664.38726806640625
668757.35323524475098
667865.87699699401855
666988.82600402832031
666124.71266555786133
665272.74178886413574
664434.50035285949707
663613.14156341552734
662811.10454940795898
662028.66501045227051
661264.2112979888916
660515.43967247009277
659780.0040168762207
659054.05752372741699
658330.98578453063965
657602.04410362243652
656858.96765899658203
656097.12071418762207
655318.82559585571289
654534.0454044342041
653757.39611625671387
653002.32272338867188
652276.57498741149902
651581.66143226623535
650914.08955955505371
650266.4570255279541
649628.3071460723877
648988.32209396362305
648337.55524063110352
647670.35633277893066
646982.4220027923584
646269.01793670654297
645525.43717193603516
644749.28788185119629
643942.40508842468262
643110.97619247436523
642264.51625823974609
641414.42437934875488
640572.16261863708496
639746.74178314208984
638942.06232452392578
638155.61033821105957
637380.16097259521484
636607.10316467285156
635828.44277954101562
635037.04414367675781
634227.75954627990723
633400.145751953125
632559.87955284118652
631715.73300743103027
630874.4615592956543
630037.91823577880859
629203.96970748901367
628368.27533340454102
627524.46439933776855
626664.39958763122559
625780.3112964630127
624867.56954956054688
623925.86890029907227
622958.27512359619141
621969.3245906829834
620963.62929534912109
619945.31308746337891
618917.74219703674316
617883.9955997467041
616848.27620506286621
615816.66557693481445
614795.37556648254395
613787.31833839416504
612790.18486595153809
611798.33344650268555
610807.01791000366211
609815.56502723693848
608827.44083023071289
607848.17636680603027
606883.05026626586914
605935.81942558288574
605008.88326454162598
604104.26950263977051
603224.24389457702637
602370.0181941986084
601539.17572402954102
600724.4630069732666
599916.23308372497559
599107.2022647857666
598295.93980026245117
597486.90974807739258
596687.57182693481445
595904.98769569396973
595144.00134086608887
594407.47065162658691
593696.83810043334961
593011.3761100769043
592346.68831443786621
591694.65461158752441
591045.50610733032227
590390.54508590698242
589723.59633255004883
589041.08131790161133
588342.20959854125977
587629.69079399108887
586910.01902008056641
586191.93313026428223
585483.28709030151367
584788.0983829498291
584105.36627578735352
583429.74041175842285
582753.20442008972168
582066.93380737304688
581362.76241683959961
580634.02345848083496
579876.25936126708984
579088.09000778198242
578272.10474395751953
577434.93719100952148
576585.55216789245605
575732.09321784973145
574879.09550094604492
574026.87120056152344
573173.29705810546875
572316.24537658691406
571454.60229110717773
570587.57096862792969
569713.74318695068359
568831.37802505493164
567939.63782691955566
567039.30614852905273
566132.12421607971191
565219.7050724029541
564303.3836612701416
563384.96310424804688
562467.42607498168945
561555.01419448852539
560652.98814582824707
559767.00629997253418
558902.13195991516113
558061.7396183013916
557247.14605522155762
556457.65084457397461
555690.41077041625977
554940.3198070526123
554200.54362297058105
553463.97207260131836
552725.06827545166016
551981.17339706420898
551232.73468017578125
550482.69769287109375
549735.51095962524414
548996.18154335021973
548269.58738327026367
547560.10784149169922
546871.52496147155762
546206.99493598937988
545569.04525375366211
544959.3099308013916
544378.00914573669434
543823.1670970916748
543290.06110191345215
542771.87505722045898
542261.62237739562988
541754.14651870727539
541246.97344779968262
540739.49055480957031
540231.35370826721191
539721.60005569458008
539209.16914558410645
538694.32169723510742
538179.56103324890137
537668.94629859924316
537166.33034133911133
536673.69086265563965
536190.80555725097656
535716.19449615478516
535248.38517951965332
534786.63794898986816
534330.69038772583008
533879.93728828430176
533432.7374153137207
532986.54515266418457
532538.8066291809082
532087.79458045959473
531632.18113136291504
531169.76840209960938
530696.79290580749512
530208.86606979370117
529702.89612197875977
529178.19287872314453
528635.86784553527832
528077.1977653503418
527502.56114387512207
526911.6294116973877
526304.4077320098877
525682.16155433654785
525047.50978660583496
524403.54169464111328
523753.0753345489502
523098.97624588012695
522445.40188980102539
521798.31094741821289
521164.00448799133301
520546.0556583404541
519943.08595085144043
519349.48310661315918
518758.73876762390137
518166.97721481323242
517574.27083778381348
516983.45723915100098
516397.98710250854492
515820.37126731872559
515251.88441276550293
514693.03578567504883
514144.00931739807129
513604.47231101989746
513073.23909759521484
512548.48837852478027
512028.74137496948242
511513.92578315734863
511005.71642684936523
510506.71137046813965
510019.35614204406738
509545.60299301147461
509087.39314842224121
508647.16295433044434
508227.56145668029785
507830.22948455810547
507454.43845176696777
507096.5411548614502
1046047.8286800384521
1024037.7374038696289
1013888.3120708465576
1006113.3255462646484
999646.60208892822266
994186.97389602661133
989751.96492767333984
986110.28611373901367
982896.09028244018555