/*--------------------------------*- C++ -*----------------------------------*\
  =========                 |
  \\      /  F ield         | OpenFOAM: The Open Source CFD Toolbox
   \\    /   O peration     | Website:  https://openfoam.org
    \\  /    A nd           | Version:  12
     \\/     M anipulation  |
\*---------------------------------------------------------------------------*/
FoamFile
{
    format      ascii;
    class       volScalarField;
    location    "0.0063";
    object      k;
}
// * * * * * * * * * * * * * * * * * * * * * * * * * * * * * * * * * * * * * //

dimensions      [0 2 -2 0 0 0 0];

internalField   nonuniform List<scalar> 
75962
(
3.7594832151534325192e-05
4.7839947216999139051e-05
7.0330482558209780311e-05
9.2255476098987020291e-05
0.0001036701832229703534
0.00011448197077581084315
0.0001390308025120491934
0.00019700462073894264153
0.00024818049153964251083
0.0002730795267782595956
0.00028252016245975986345
0.00029392039320662690424
0.00032189569779170803523
0.00039568474248262761441
0.00046947435315739313852
0.00051140217261412134094
0.00054295422433423771568
0.00059972346280895622896
0.00068519966553778519861
0.00077033219981146152169
0.00082649479026299034652
0.00085040031954163226597
0.00085920008462440249693
0.00087221219370860550175
0.00090711124212800671365
0.00096346275768463161479
0.00100714274860746523
0.0010351020297264558728
0.0010631493834412351386
0.0011173056015683459959
0.0012352086048580805146
0.0013948829398193350517
0.0015515709564327040317
0.0016758918074118974231
0.0017679837472395890964
0.0018439758566404943017
0.0019107269410121559619
0.0019601744335616443429
0.0019885193543714859386
0.0020153698428472762751
0.0020670039061481894523
0.0021506494081786099726
0.0022520175458984187378
0.002345657764354181201
0.0024113727039931707845
0.0024478074692099041978
0.0024774328716284581102
0.0025353368971861231507
0.0026926372038081633833
0.0029940102486084910725
0.0032560587425120583911
0.0034215478609408468691
0.0034943595739550929215
0.0035140560279644794672
0.0035198628799642576147
0.0035312855074645303592
0.0035632660150518237659
0.0036546196976038735488
0.003798165791484672555
0.0039528341288218729957
0.0041059618651640679768
0.0042374981656732530269
0.0043275023227360058867
0.0043724346129302088873
0.0043944231460627397601
0.0044285796985110226567
0.0045272014732778238441
0.0048369720187595808408
0.0052073460973150681799
0.0054560438233998403285
0.005588590028176931325
0.0056460191343287073965
0.0056715867894514748401
0.0056885254232461931329
0.0057045337950489150708
0.0057248102379585568203
0.0057621561529306282792
0.0058449272316416535367
0.006075586226982239435
0.0064197835538134968847
0.0066843662136252439757
0.0068227119050975944953
0.0068691858930548695128
0.0069050020307021443139
0.0070002737219270758443
0.0073365231552385661018
0.0079049526610292710632
0.0083290637524272952141
0.0085933331788249477795
0.0087384068545913948234
0.0088103769345092737553
0.0088405783487336252885
0.0088486007854294331659
0.0088499311587096549103
0.0088563723202061545026
0.0088962489240607071223
0.0090790346247884724101
0.0093764376989895689696
0.0095302910661725186159
0.009566947182853460796
0.0095578820847935803268
0.0094891188906857642377
0.0093847852688741656424
0.0093459291733739794511
0.0093474707933012112643
0.0094010660526478422722
0.0096496958789730469253
0.010266592722991685349
0.010796810743424572338
0.011127240318528852647
0.011280824623738056056
0.01135386680741710258
0.011463424387455277767
0.01174330230916448975
0.012452450168771708738
0.013161831428341966635
0.013622011042208524711
0.013816990848253994303
0.013844404776058397491
0.013796498690028507345
0.013627396439792896499
0.013554529144443749553
0.013573280472102353805
0.013782966293878408381
0.014552547669584130208
0.015301279031267924977
0.015655457770513393767
0.015747130007421714093
0.015747147879747746407
0.015739706879913540477
0.015752636115243339593
0.015791935642364092474
0.015794298512851807914
0.0157404424460188333
0.015463911994210132947
0.015057970224657128352
0.014853407306023599585
0.014802542417619656001
0.014812643576797119085
0.014902058301686713082
0.015117063498695279544
0.015262911635542948663
0.015337242758584722011
0.015365118648154962519
0.015369714923169098056
0.015367799865714961219
0.0153566655077991953
0.015312776234728325483
0.015204146559987676002
0.015105546922244476177
0.015036792253170540301
0.014996873742555099848
0.014981285372686281576
0.014978981427713505825
0.014982048533582112068
0.014995617723192151277
0.01504816318786728925
0.01520549268705531816
0.015404961112540343365
0.015585496013128344664
0.015737160323207450424
0.015851120986554535774
0.015924665077295868665
0.015964533150638077902
0.015983868035794934759
0.015998648220283042537
0.016023489318435054501
0.01608228136712671133
0.016213017438736265774
0.016356882504707306869
0.016491183484700508433
0.016612508982062471063
0.016727867852735913562
0.016846894390335681591
0.016978295229843891334
0.017123844608572816317
0.017278125787139927971
0.017429411699945888264
0.017562710445161892198
0.01766775100961781933
0.017737573363714075753
0.017777843774204972471
0.017799319230696171446
0.017820367625185289107
0.017858308083286332513
0.017925872792688840596
0.018032919343458624073
0.018175092761384990109
0.022120400063042465477
0.02214667368825573579
0.022159884363744577346
0.022163909268030315691
0.022163555827393571773
0.022161886299325698341
0.022158301766441727831
0.022154515198316265812
0.022150702278641343917
0.022145728378819604099
0.022135956999491491343
0.022112760337027956292
0.022075016044889112649
0.022035325754158403833
0.021995588613244784759
0.021958383489337606614
0.02192291561746193343
0.021890733773767555997
0.021860363214733405379
0.021832758161005591524
0.021805708637793384114
0.021780128394258111563
0.021754699592947266545
0.021731547516884122673
0.021709591794055120573
0.021690301416819962599
0.021671547864083255674
0.021654325091302779882
0.021636375253447522743
0.021618719968822308619
0.021599597035974898301
0.021580870626593202932
0.021561635242413224045
0.021543835915652946589
0.021525925490661814571
0.021509087397997127961
0.021491544167826625439
0.021474503312249034609
0.021456556463513916377
0.021438829969359984168
0.021419847702667315498
0.021400436224512056627
0.0213792178848312385
0.021357481489767057847
0.021334551127321060154
0.021312359334169510977
0.021290202281193999767
0.021269494954888945593
0.021248492352616905193
0.021227990438896650327
0.02120608515334406266
0.021184184360858022284
0.021160894149729950198
0.021138040604192394334
0.021114255645661515748
0.0210914590033794494
0.021068199332659267448
0.021046142467540888271
0.021023360232627744809
0.021001060015825374211
0.020977383643895397558
0.020953671843419108961
0.020928665139886608315
0.020904213600820339275
0.020879428744017339281
0.020855834694116715672
0.020831870731193934121
0.020808362336255787489
0.020783951997507016385
0.020760088812326858015
0.02073619962635684516
0.020713694746587584666
0.02069166974648295812
0.02067084953783138862
0.020650140570148110136
0.02062993118946551338
0.020609021804263303462
0.020587458324177534963
0.020564254602361588253
0.020539942926840044218
0.020514443505541306995
0.02048881032185823764
0.02046303293786282812
0.020437937308963514266
0.020412986776012467111
0.020389003547373499986
0.020365009205818421223
0.020342107572011342703
0.020319106612902138737
0.020297238427676292383
0.020275153043025916783
0.020253638527445362583
0.020231172220582811089
0.02020840768532711218
0.020184497850897757665
0.020160646253112399912
0.020136709205641784015
0.020113372506044276816
0.020090065333559337102
0.020066690941042721053
0.020042888761502963141
0.020019128043318408505
0.01999533581183619152
0.019972265451064556696
0.019948954323467795596
0.019926355486105360587
0.019903094171760529058
0.019880456254816443462
0.019857274834329485119
0.019834177832040944534
0.019810596299689908067
0.019786501800982944643
0.019762363067463886712
0.019738018788024416089
0.019713946407892261187
0.019689883209187328955
0.019665745592247964313
0.019641399330735609396
0.019616987591227107862
0.019592051753697919264
0.01956758245407069427
0.019542454956302829361
0.019518495475910793702
0.019494162317030116344
0.019471192378280419155
0.019448018512660297102
0.019425949698306483465
0.019403170536542391211
0.019381189653596170297
0.01935773599003312237
0.019335190749952959471
0.019311362119740351634
0.01928900238342198814
0.019265789645136033315
0.019244480548328148084
0.01922195947628593804
0.019201750161063933092
0.019179495193966070166
0.019159302259004213492
0.019136625509813119661
0.019115543439868345338
0.019092589905554298302
0.019071502914482899721
0.019048697140541883538
0.019027981538382747473
0.019005001836142475236
0.018983989242224347943
0.018960785727831847708
0.018939488660249460122
0.018916358101391923807
0.018895784998241387659
0.01887331465375310241
0.018853847638725180352
0.018832063570492944132
0.018813006008058717061
0.018791290230724837229
0.018772481566680081916
0.018750564450775178416
0.018731686538536823639
0.018709439334868179644
0.018690129207877260314
0.018667608391772772675
0.018647927680230349384
0.018625182246673352426
0.018605195246781145585
0.018582464270521105443
0.018562832493487738117
0.018540633470026150753
0.018521542508294748519
0.018499606219686708097
0.018480639667719744174
0.018458431209318518218
0.018439424980472025883
0.018416968432382489762
0.018397931537377804762
0.018375498412443132257
0.018356325308121045764
0.018333565141568943652
0.018314386075812833649
0.018291544171357705661
0.018273107939920100323
0.018251698989391124811
0.018234610980520028073
0.018214492706024192764
0.018198119135713529404
0.018178112599020527368
0.018161367299468492847
0.018140780653947346374
0.018123447283138634928
0.018102413340242425738
0.018084715685432472404
0.018063509599399226596
0.018045568606406436896
0.018024091837874886557
0.018005916482654728966
0.017984236802899858376
0.017965878560611717868
0.017944187769065485238
0.017926060274090774987
0.017904790020962811636
0.01788767665343293789
0.017867496441586427219
0.017851749898611456169
0.017832505781060735417
0.017817682364412671531
0.017798447451897604632
0.017783672183762467417
0.017764149970867438438
0.017748934182460370662
0.017729637149503339744
0.01771453104646220772
0.017695878824948770708
0.017681238843596160104
0.01766289223120751789
0.017648234472924656524
0.017629420141382620701
0.017614288268185698122
0.017594666885467815515
0.017578768077203318215
0.017558322558874194658
0.017541659937010095627
0.017520696105669853609
0.017503722497676399428
0.017483175940041523894
0.017466341807617233317
0.017446529238674970963
0.017430544533099043281
0.017411658541756119128
0.017397056758652384989
0.017379154636423938679
0.017366003291225704658
0.017348816051894075385
0.017336064022174916405
0.017319136865579738693
0.017306026340704262073
0.01728853320338772856
0.0172745841512282651
0.017256289729328036509
0.01724212643998351141
0.017223569174676937182
0.017209747641471182661
0.017192084961503952684
0.017178238924202129945
0.017160930996417748245
0.017147474877653657438
0.017130172838658076079
0.017117305854481727756
0.017100293577099672654
0.017087595908376589787
0.017070511255954098212
0.017057856051447193441
0.017040966128740658164
0.017028588661808164578
0.0170126098514052429
3.9100713949186576338e-05
4.8750618818170383939e-05
7.2606664386230251461e-05
0.00010428269740134056358
0.00012435336276847488036
0.0001350936201467082935
0.00015105046855562337675
0.00019291387938268755994
0.00024576085652327632784
0.00027251497249389429207
0.00028441584325733932888
0.00030332374994308152144
0.00035001068444918281451
0.00043791937701248242381
0.000522046588655559053
0.00057594291877995985093
0.00060061634555105705788
0.00062848967760502697216
0.00069430013316075728583
0.00077917593823016988597
0.00083967488178594601629
0.00086829149047501724776
0.00088395552437763947121
0.00091452317441483184628
0.00097065381973121425511
0.0010170406842495394954
0.0010437847265138992456
0.0010679303750078482631
0.0011166115719377419507
0.0012103862372006392659
0.0013303031245189818419
0.0014629990080008994056
0.0015980231924328720024
0.0017238829668937501096
0.001828841534756362559
0.0019069280333067852896
0.0019596670777901376188
0.0019966642761370702319
0.0020348143708016240214
0.002090236927078860385
0.0021698042312650630929
0.0022674068419095364663
0.0023668526256987224531
0.002449627117089387459
0.0025044489491800620701
0.0025346426808134543684
0.002560437863058795914
0.002611169724390304675
0.0027493094597519224243
0.0030929779839012454257
0.003429696021899201943
0.0036542141831683132291
0.0037629260391394961024
0.0037960490749184964444
0.0038000787616042654669
0.0038007894063267315399
0.0038058814073982684401
0.003828852053993697744
0.0039104822921592922655
0.0040954487430506234316
0.004275227652560292628
0.0044215727406716224743
0.0045196332016385482033
0.0045683522649395368054
0.0045875265604686530155
0.0046094499393121409273
0.0046694508514371355426
0.0048867278560350141392
0.005298397902967510488
0.0056150928563357118892
0.0058079802407531412947
0.0059029428981260644027
0.0059419218845188437675
0.005957831087871695401
0.0059689717438569595345
0.0059853046425402990638
0.0060174807755492814437
0.006092664880600538041
0.0063175290567467953101
0.0067250771796652820955
0.0070537887063948714883
0.0072406174416041130595
0.0073078065657808137165
0.0073364775803221454753
0.0073963959716181800624
0.0075942800539772247273
0.0080833705604790705851
0.0085201344617860958613
0.0088170323429574964241
0.0089926218746338420357
0.0090837789497222737323
0.0091230433083856910664
0.0091356354371252314339
0.0091419730063423011029
0.0091571621827102340357
0.0092132990085725032653
0.0094290972905964488132
0.0097449908637016226243
0.0099274370700718136962
0.0099886103672480325288
0.009990540677739934497
0.0099607178354737552911
0.0098731926710204850894
0.0098270295140807911033
0.0098229074103548894709
0.0098500161156433799214
0.010008626228512793391
0.010572393561279872648
0.011246566701603131003
0.011669706930495495067
0.011871429845986092994
0.011973297926436138675
0.012127522278488400698
0.012516118957342068155
0.013199100071691447986
0.013808913840689784197
0.014206430425498654466
0.014369324140512904422
0.014387608270545112002
0.014331195243157641289
0.014155431376454948381
0.014087332508982145646
0.014110792507869715506
0.014346683583302455647
0.015193849006800680401
0.01599139982902981344
0.016362330080370624669
0.0164680746721383095
0.01650473646259649832
0.016589424488386440848
0.016775551125814740228
0.016895804556955534154
0.016918511888718026914
0.016877807320552721398
0.01662344277301647244
0.016150579019590837609
0.015899280254636778686
0.015831942384718303979
0.015840882765044059927
0.015933021257773065382
0.016144768229468711707
0.016276561238102244672
0.016334023971912282891
0.016350563061437291268
0.016350582220563378982
0.016345046443027630434
0.016317349451137490302
0.016218189600048407706
0.016086538628434000203
0.015988424428808895722
0.015925927525992089606
0.015893563225547847201
0.015882666534969745731
0.015882426103388174593
0.015886132789304719531
0.015901920237202639419
0.015962374080564407236
0.01613599982094545901
0.016327258535926574695
0.016478084601294247513
0.016582376647265459346
0.016642821324292511598
0.016672874079728020047
0.016693546219147373938
0.016726103857175763506
0.016796839901706953069
0.016902929741705659261
0.017025744386351446269
0.017152333577194228686
0.017272974927004716011
0.017383686188378870419
0.017487785702501666696
0.017594157836192794719
0.017714487630325775197
0.017856049121291673459
0.018018365500399570467
0.01819121633318599926
0.018360070559313618893
0.018508350034757863056
0.018624992886706798201
0.018704299683895368039
0.018750509999274082157
0.018772708204609304256
0.018784157464320317549
0.018797718155497411541
0.018827136111894342274
0.018897868739757271023
0.019050347175758732682
0.019245935408702598279
0.02326123724694118336
0.02330891453441793007
0.023338999561906777214
0.023354939193481281251
0.023360940564206955639
0.023361811425430849959
0.023361081614129461381
0.023359509403895889479
0.023356581304076036443
0.02335289757480612724
0.023346863915403446438
0.023333300676248489025
0.023300241833819870102
0.023255486744005446353
0.02321005782305017931
0.023165961151439491694
0.023124914625486436837
0.023086754480446697313
0.023051797911990277307
0.023019133386481104714
0.022988777784846838731
0.022959818050289616115
0.022932272839904670192
0.0229057313317526344
0.022880742297388650952
0.022857147093601964255
0.022835252970286983032
0.022814425340321881075
0.022794507944457517712
0.02277462311397443831
0.022754604387222196471
0.022734214521374761925
0.022713987215451949403
0.022694075804671684504
0.022674764174951577561
0.022655714002920369216
0.022636887176429032476
0.022617938206565438991
0.022599053767890217581
0.022580037690404237971
0.022560989371180849988
0.022541531253310417848
0.022521415837574210866
0.02250017424672460728
0.022477714999711781441
0.022454401150924369057
0.022431082322707004972
0.022408373325942910342
0.022386524275697514824
0.022365040294230080498
0.022343502365060597531
0.022321428770270091563
0.022298841233104459147
0.022275640245715128129
0.022252001476866688917
0.02222784685877287128
0.022203422520173512339
0.022178729380230653712
0.02215393068287057482
0.022128925885513472255
0.02210380356039822608
0.022078360941049826605
0.022052556520639990389
0.022026501957097259499
0.022000363404079084639
0.021974643455378410628
0.02194934862114617663
0.021924454124484696327
0.021899463321613084343
0.021874344029840279979
0.021849075736485291943
0.021824245597689976434
0.021799996070752319238
0.021776781844049825088
0.021754199381421236714
0.0217321774825948201
0.021709819412972706371
0.021687021782450653651
0.021662989037015148441
0.021638180730842521832
0.021612191754183961157
0.021585906702475708002
0.021559142307509025077
0.021532786543839676358
0.021506602875910305755
0.021481143967468103312
0.021455999171466830222
0.021431322039571140681
0.021406967117789069133
0.021383166554398716497
0.021359859471765090672
0.021337006035368803747
0.021313870382819948002
0.021290277140865631472
0.0212655534417356476
0.021240400901187971028
0.021214637708921207926
0.021189536832254125126
0.021164458314596099747
0.021140292565148471188
0.021115843757298399797
0.021091863475289608643
0.021067567052664302324
0.021043749135683669643
0.021019860944579433354
0.020996143671853147866
0.020972107843624965273
0.020947914641998462842
0.020923376637515138377
0.020899100494208119189
0.020874267118681785055
0.020849851346059745938
0.020824237820855774628
0.020799200292402984097
0.020773217496527898729
0.020748239462375722697
0.02072256141189763104
0.020697652900705940798
0.020671831928257760475
0.020646811049654715392
0.020620650290131686821
0.020595684666599743673
0.020569197973432654797
0.020544447859693990011
0.020518468137776284949
0.020494722340930953547
0.020470141323635934749
0.020447619533739823383
0.020423768278762952089
0.020401401531139513879
0.020376944500385268944
0.020353968446229719902
0.02032887241599981229
0.020305773712953063825
0.020280687551487968506
0.020258077853815288638
0.020233375039286089631
0.020211804694491637691
0.020187829947378176793
0.020166895816156153731
0.020143099833121704684
0.020121733145504853979
0.020097580277874275978
0.0200758926565477204
0.020051442103104142461
0.020029615686997005036
0.020004691931642056696
0.019982312953343246698
0.019957058787489767582
0.019934580853910803533
0.019909824038800680995
0.019888619690698376707
0.019865015637308934549
0.019845169078189953821
0.01982223972733411152
0.019802621214586455661
0.019779557178529225819
0.019760064480919364155
0.019736761688968807588
0.019717277405769069454
0.019693754852455711002
0.019673813361196376692
0.019649897840317363806
0.019629403057850779851
0.019604941776324880109
0.01958411659179523992
0.0195596922411844093
0.019539387317609312189
0.019515743660931547665
0.019496127037801042059
0.019472871881802310962
0.019453379787780136073
0.019429858707566409481
0.01941019764403972489
0.019386028027216110903
0.019365876434369169723
0.019341237432122727197
0.019320718400717615953
0.019295898967414085168
0.019275612328829752617
0.01925111094108277951
0.01923180642686866601
0.019208837327565331937
0.019191117637340351226
0.019169562424247447302
0.019152504866821642993
0.019130791047960140489
0.019112966305222280072
0.019090291293303720405
0.019071727002164581138
0.01904868710340598334
0.019030282288591028605
0.019007503521232690935
0.018989250426942962807
0.018966547037629743339
0.018948061871350972696
0.018924964343258580263
0.018906046197332385811
0.018882536302200304823
0.018863537810387881466
0.018840306747259359665
0.01882223415597815766
0.018800143848905846722
0.018783552552483578219
0.018762610713159953713
0.0187471021160727086
0.018726386040256660231
0.018710936828192758358
0.018689794239517349556
0.018673655777302032577
0.01865243797093929512
0.01863642968939315317
0.018615892409552994152
0.018600646810080220112
0.018580787893521608783
0.018565787204320550324
0.018545465231464490496
0.018529750065455600355
0.018508422528230442095
0.018491729570324362542
0.018469417468455481129
0.018452024742504131993
0.018429436201601302053
0.018411948542395646655
0.018389695961506302702
0.018372468125626133933
0.018350942147138896848
0.018334448089816993838
0.018313859845095360052
0.018298752456590853394
0.018279177899401803653
0.01826530458698895007
0.018246344599094285743
0.018232868404782765631
0.018214087270902883792
0.01820025015231072768
0.018181065340020972909
0.018166431336786036804
0.018146361681029669899
0.018131371005112580791
0.018111068046249186037
0.018096438189123147111
0.018076919456600813035
0.018062457968312833206
0.018043354757973091573
0.018029184824963767619
0.018010032340592885963
0.017996350954434036512
0.017977522319960696079
0.017964089146532937619
0.017945285535134813254
0.017932037516570360769
0.017913559146322536458
0.017900606145167540645
0.017883111920002744272
4.0782365188281345105e-05
4.7615929717034957268e-05
7.1984646574086908117e-05
9.8271932908193778745e-05
0.00011279503944103253226
0.00012440381489689015496
0.00014789700611888355439
0.00020717626725871111644
0.00026993125492540804124
0.00030452296703545198237
0.00031881169614458816294
0.00033111298103270694459
0.00035642067602284022501
0.00042541578869639769299
0.00053171635583255829997
0.00060285351300033750491
0.00063510510224743920576
0.00067288586942305277701
0.00074326858919719618595
0.00082244343610491440089
0.00087775136565626239553
0.00090338492633072438927
0.00091712337659373367651
0.0009399219313956405468
0.00099988325403074416152
0.001086763458275751687
0.0011487743425265684993
0.0011834831358922620007
0.0012071366456606019528
0.001244032525226541246
0.0013282397083523589127
0.0014992059567317452418
0.0016817710351940428661
0.0018417817870958555233
0.0019685666029245012763
0.0020639541800808840211
0.0021300547243956946195
0.0021686195757245011612
0.0021900232976351892075
0.0022163981378990598586
0.0022770000327595424187
0.0023855742629291295381
0.002493929456410777859
0.0025765707143874587264
0.0026252892952208471689
0.0026505455708266401071
0.0026764142608204735153
0.0027309910354782712498
0.002888038936337686529
0.0032398774072827092423
0.0035574388865401416517
0.0037676507003655541721
0.0038698427262543006952
0.0039037237742910384057
0.0039164118912099954092
0.0039372612301895714565
0.0039865693379262170937
0.0040979439640527678956
0.0042438426666079514041
0.0044045466453438569809
0.0045568962271309628592
0.0046756791090589817569
0.004746285220681809025
0.0047756537871513965107
0.0047898248304172538758
0.0048164548157174592521
0.0049100471638503758245
0.0052582749824128388605
0.0057678221435958536636
0.0061049753764273254064
0.0062697046060788035396
0.006322587505407987335
0.0063286995872531594254
0.0063260455427601152562
0.0063252660781641907931
0.0063305856678839951893
0.0063606919901634624212
0.0064819024540861110498
0.0068369152980816893725
0.0072086088602258801411
0.0074602727154970387841
0.0075844764106534710152
0.0076185503785428073178
0.0076279673466469405732
0.007658260693691740402
0.0077999127970494472675
0.0082486473892558250659
0.0086944817087339434925
0.008973578990379905973
0.0091254793642856074642
0.0091961606740217881339
0.0092250631158188947656
0.0092435267645736823167
0.009277158821878571035
0.0093637947651081833433
0.0096304585882437208216
0.0099854197497149695117
0.010224378710007643936
0.010334737123339802004
0.010357045034129555572
0.010345998469041361653
0.01027930801769320196
0.010207346064874315075
0.010190088608046023178
0.010203003493583322203
0.010301468493763291795
0.010715482046687608772
0.011540160436778110903
0.012173211944486273667
0.012544098955267668841
0.012703322111046702614
0.012771604424747919765
0.012874063104476252128
0.013149293150664494167
0.013887759244811477902
0.014605050620880835957
0.015015688182027109657
0.015151022952789090781
0.015149021499827415929
0.015024432273753206626
0.014763596537203538955
0.014681843650624016445
0.014714556161956632296
0.01501359090086011594
0.016037326049945399564
0.016952462568100977458
0.017370417069465151488
0.017482131162757777454
0.017508072461071139125
0.017568904453079396688
0.017774922133379385952
0.017966718582287911909
0.018014963197340964907
0.017983196707185740426
0.017753193804826452457
0.017195642573939264736
0.016848254812681658088
0.016721811782475264757
0.016708912221131938525
0.016731453146788043823
0.016832687273513505938
0.016983001553749887264
0.017097803489721806469
0.017183454612977558384
0.017242196966761390992
0.017271448229494213572
0.017277171549603103501
0.017268299422916234126
0.017211140669284499122
0.017060824524644319783
0.016946826074997922706
0.01688777231095671752
0.016867247628622610706
0.016864471719539256972
0.016866560709575446203
0.016872686978150475134
0.016888134619860394742
0.016927177797128822867
0.017020088492579257822
0.017140376806429841877
0.017262850583908022351
0.017378030862823252989
0.017484768927547102851
0.017591463096378903014
0.017706582477807483039
0.017836408960137505736
0.017976688808664362251
0.018116808869850935942
0.018243564328558652815
0.01834746729853458172
0.018433316915807743813
0.018509356309648797301
0.018590318834141195126
0.018688621904296990467
0.018810501776365784465
0.018952651835375658451
0.019103969164248394558
0.019256072529827601009
0.019396937263094448517
0.019521421288474970213
0.019628585666174876156
0.019721940798562480335
0.019811910054440450696
0.019906943099244494427
0.020016418679207913234
0.020142050999961698399
0.020282591777234810354
0.020431156194695539868
0.020580178378669208156
0.024422984590970957947
0.024485724682016967585
0.02453418682842263554
0.024569910280885828846
0.024595032645934680055
0.02461101918696862248
0.024620884522166031766
0.024626227336713147481
0.024628797654483367691
0.024629242283164796273
0.024626853034846837853
0.024621478802264003954
0.024611879094633307835
0.024590957425174052309
0.02454181711255716547
0.02448578907230269941
0.024432360208680416885
0.024383833819394924031
0.024338094961762757329
0.024296523902570428544
0.024256943480252673995
0.024221123974980565685
0.02418676997115607949
0.024155521969844870322
0.024124933596918987644
0.024096986181203226829
0.024069477720215295968
0.024044564880418603514
0.024019751888400064227
0.023996867285138268749
0.023973263509392047504
0.023951121049031947469
0.023928202364722237633
0.023906865610997078686
0.023884486982934431676
0.02386336193536727282
0.02384104162894232215
0.023820216663764444409
0.023798477160271759578
0.023778157364496663173
0.023756574520824018382
0.023736061592542684329
0.023713687145332409956
0.023691642631524203327
0.023667048336151193244
0.023643003995505677134
0.023617616236380187256
0.023594459098999862046
0.023570726612198871636
0.023549023042530977529
0.023525719283886883243
0.023503699701012691764
0.023479675473919218304
0.023456711658136550347
0.023431391198146363231
0.023406822115024757819
0.023379682298055485395
0.023353354482950332283
0.023324846595284148137
0.023297833032301880352
0.023269128935993074747
0.023242222151620153814
0.023213775737780627251
0.023187220509672746421
0.023159218393063812913
0.023133263051977548397
0.023106000177674588386
0.023080530384762897034
0.023053488085497994553
0.023027943177291419763
0.023000941264282818294
0.022975744455947608863
0.022949550254737719618
0.022925449933526676621
0.022900382006007590635
0.022876782755969011368
0.02285117988834987901
0.022826144511465782522
0.022798763506833449877
0.022772413055027380252
0.022744299008330765705
0.022717666050837644065
0.022689355420195594926
0.022662777961601796722
0.022634986446906663754
0.022609273679694352061
0.022582309429262092948
0.022557104829057900153
0.022530553324778618968
0.022506126298603008201
0.022480788043057343961
0.022457227150939559207
0.022431906398424031335
0.022407241372964323972
0.022380232923635032943
0.022354096410198458916
0.022326337616912866196
0.022300264044906582123
0.022273272761078089649
0.022248395119519669139
0.022222634364150166408
0.022198832473092559858
0.022173619865906421533
0.02215032699074976491
0.02212488559119079462
0.022101494738175613691
0.022074990116348312125
0.022050592996721046779
0.022022987639587824488
0.021998000669998546419
0.021970531161711933515
0.021945471690717865965
0.021917980427910325331
0.021892322092754420981
0.021864501475536993191
0.021839022235582497555
0.021811357400856806049
0.021786345546371880394
0.021758534323075177236
0.021733659885415645974
0.021705819859636155122
0.021680941650317461789
0.021652897301269805053
0.021627874616252741602
0.021599906533490732807
0.021575889889917217179
0.021549018909088449997
0.021526336186098900261
0.021500319553100822462
0.021477711864084210458
0.021451524738308792167
0.021428427756349184563
0.021401658124520547138
0.02137834293966440688
0.021350804412612580524
0.021327419532039454397