/*--------------------------------*- C++ -*----------------------------------*\
  =========                 |
  \\      /  F ield         | OpenFOAM: The Open Source CFD Toolbox
   \\    /   O peration     | Website:  https://openfoam.org
    \\  /    A nd           | Version:  12
     \\/     M anipulation  |
\*---------------------------------------------------------------------------*/
FoamFile
{
    format      ascii;
    class       volScalarField;
    location    "0.0063";
    object      k_0;
}
// * * * * * * * * * * * * * * * * * * * * * * * * * * * * * * * * * * * * * //

dimensions      [0 2 -2 0 0 0 0];

internalField   nonuniform List<scalar> 
75962
(
3.7588990055803927907e-05
4.7829112361855726334e-05
7.0337295488529370693e-05
9.2239762603138361835e-05
0.00010363567330644754918
0.00011446444282514969815
0.00013908127849190520149
0.00019710140272773292577
0.00024819238107364637773
0.00027301795490112824036
0.00028243919906571784582
0.00029386907461270402389
0.00032193046507679668388
0.00039582481440602007659
0.00046951530484703037039
0.00051136015087781868521
0.00054293712754031496145
0.00059979572611203147651
0.00068530764106963413477
0.0007703815932504348837
0.00082644144042970239025
0.00085026304903724537511
0.00085904104600344037296
0.00087208826589344227639
0.00090709093547428195844
0.00096344297396508968637
0.0010070758795411986243
0.0010350043802343604493
0.0010630830811844565499
0.0011173626796305560424
0.0012354640150804665263
0.0013951570003940298118
0.0015517525620739407687
0.001675952641868662038
0.0017679665767630079517
0.0018439262516857662672
0.001910642010416361506
0.0019600226471755480273
0.0019883214467369806668
0.0020152114374884064381
0.0020669441634138183139
0.0021506747114250286852
0.0022520569250771373983
0.0023456272034541288465
0.0024112318337060263153
0.0024475912480972496048
0.002477249589855973471
0.0025353154925677190423
0.0026931874351103922589
0.0029946608842858456201
0.0032564465502604163054
0.003421585646913865783
0.0034941455138909104441
0.0035137421897845863041
0.0035195502509736565494
0.0035310136275353417798
0.0035631194182762504497
0.0036547354849705321507
0.0037983249941431025329
0.0039529945904579893989
0.0041060841428428914573
0.0042375247425556856681
0.0043273843005145690502
0.0043721830500145740517
0.0043941244383501826612
0.004428349501597384115
0.0045273785519443282208
0.0048379613052718919639
0.0052080147684620877596
0.0054562922371525551454
0.0055885220945972860149
0.00564578627905485287
0.0056712922018263400153
0.005688206914285054254
0.0057042046860025959198
0.0057244996533334932889
0.0057619266186059977033
0.0058449471287395863422
0.0060762911325802091214
0.006420435704913228861
0.0066846415555099833461
0.0068225816440356749221
0.0068688817123520439639
0.0069047849447364181841
0.0070004627184394492556
0.0073380467379353109258
0.0079063372937676259372
0.0083298673895130098677
0.0085936099110426999309
0.0087383084064816939768
0.0088100375840706630914
0.008840104962386382062
0.0088480918321938405169
0.0088494535361704450283
0.0088559694101241637904
0.0088960834106211073707
0.0090796518094586522313
0.0093767785108195764177
0.0095301296894191468018
0.0095665038645763086217
0.009557327020446882912
0.0094882521269841514633
0.0093840999250304774765
0.0093454649794565552989
0.0093471130871117576872
0.0094010836001941610468
0.0096509177032211672376
0.010268443037060832196
0.010797834768188501603
0.011127518377533873392
0.011280630377969440292
0.01135363316981861069
0.011463505848841331128
0.011744474700878313259
0.012454862372065571632
0.01316348004489430526
0.01362267664342163391
0.01381682024641422632
0.013843833941684573902
0.013795491286315662155
0.013626189394042980893
0.013553852882059718582
0.013572951301163347498
0.013784027760001342153
0.014555580411397768537
0.015302800204492133379
0.015655686518709799326
0.015746690113495814128
0.01574657666878658685
0.015739149047952764177
0.015752207995836497306
0.015791486567622692316
0.015793726889535661395
0.015739449991513634192
0.015461719140019600585
0.015056278052046663182
0.014852446578434503471
0.014802024141292518047
0.014812336616981863768
0.014902332786349505381
0.015117422359745568555
0.015262882271723640301
0.015336942037192709959
0.015364666664833435614
0.015369219324508319457
0.015367295730331576031
0.01535610002853145771
0.015311985238064856202
0.015203216506686895865
0.015104761124648750925
0.015036159919005871732
0.014996378759881781942
0.014980874592457539551
0.014978582792588237063
0.014981640314541222123
0.014995239496610095545
0.01504802680587020644
0.015205798455336790379
0.015405223631782913318
0.015585692115421826559
0.015737259176001720112
0.015851096237566589947
0.015924513831415826326
0.015964278252818826787
0.015983549977238484252
0.015998315358014429666
0.016023198328365698129
0.016082193448899613497
0.016213122719195182525
0.016356963409823191413
0.016491217123947719131
0.01661250677764853842
0.016727869787098958304
0.016846940106321619396
0.016978403996715643598
0.017124003697784384581
0.017278294803080171405
0.017429532049075536354
0.017562726945979264398
0.017667624801733384371
0.01773730062776015387
0.017777462177420697009
0.017798899505222297995
0.017819998982006819699
0.017858067801749002296
0.01792581683434666534
0.018033054964919487811
0.018175384764762179957
0.022120265981085206197
0.02214644432387152459
0.022159577744248627751
0.022163557877153173409
0.02216319366791836068
0.022161526541322373179
0.022157951243428376797
0.022154165430015682753
0.022150336082209648447
0.022145324539627777444
0.022135495678866124597
0.022112209010354814953
0.022074444678199741515
0.022034778001816079929
0.021995085538367261518
0.021957929292604514565
0.021922503063008483282
0.021890349032094007925
0.021859989065647813383
0.021832377373396629622
0.021805308138783847938
0.02177970666207708697
0.02175426906078130676
0.021731128849401572245
0.021709200281559919155
0.021689937246428460382
0.021671197906822529944
0.02165396847137672498
0.021635996282950240716
0.021618315336462943371
0.021599179941212617861
0.021580462251652915429
0.021561252309682466671
0.021543482721326053658
0.021525597519167577465
0.021508777066849296689
0.021491242356068716857
0.021474200556276603485
0.021456241110487276474
0.021438487474755657525
0.021419463374043865023
0.021400001930397816174
0.021378737494454229384
0.021356974731092607384
0.021334046697637342599
0.021311881263983530749
0.021289760465004428647
0.021269082074255790671
0.021248088691501021419
0.021227574881949037161
0.021205645617056324836
0.021183720798338589314
0.021160418241271634898
0.021137569675680079745
0.021113804600944623829
0.021091032936140504533
0.02106779082843743961
0.021045733824850035992
0.02102293438987910823
0.021000608245192311369
0.020976906002104719201
0.020953176757494671595
0.020928164760407548528
0.020903718683091210284
0.020878943805709260229
0.020855357713932431984
0.020831396464003771457
0.020807888611593657741
0.020783482984207238969
0.020759635086631332557
0.020735772997931646577
0.020713302870938535977
0.020691311021838406509
0.020670513050347723988
0.020649807454201470763
0.020629579142614561105
0.020608629346949843691
0.02058701120243174032
0.020563749726473373736
0.020539389423708993149
0.020513858566787477461
0.020488213360043115024
0.02046244116411875813
0.020437362994363425517
0.020412437697637526163
0.020388481838063889084
0.020364514031746772105
0.020341634810094159219
0.020318650522110875967
0.020296791840911682092
0.020274707992156516118
0.02025318807236693025
0.020230711384357450561
0.020207935284137813758
0.02018401535021397894
0.020160157055829630579
0.020136214797626453971
0.020112873192634481145
0.020089559975257176988
0.020066180498179476271
0.020042377309086374659
0.020018622033517393527
0.01999484326819353508
0.019971791468660786417
0.019948501709951233646
0.019925921598285791653
0.01990267245512356703
0.019880036673830571436
0.019856844489869275583
0.019833728034866809214
0.019810122831707084601
0.019786010157795640846
0.019761862559285987145
0.019737518503127972347
0.019713450856456586624
0.019689389572300278197
0.019665247256803870118
0.019640890062233833796
0.019616464374208022331
0.019591519838731561581
0.0195670516048340494
0.019541939992975775747
0.019518007815310545183
0.019493707064597218942
0.01947076665013438429
0.019447611432255127589
0.019425546685789031598
0.019402759585452480223
0.019380763629405346055
0.019357297998098009495
0.019334750793689146897
0.01931093402764124875
0.019288597400420069705
0.019265412458627093756
0.019244127203220509625
0.019221624686062952631
0.019201425710107460076
0.019179176358904020255
0.01915898632477712818
0.019136310453530064324
0.019115228906270983339
0.019092271747924684927
0.019071173805091559683
0.019048350223284691435
0.01902761222711061434
0.019004613378165880616
0.018983591842134356353
0.018960393011524658696
0.01893911540550310274
0.018916014763364550483
0.018895472752529403337
0.018873028762650706502
0.018853577222837186039
0.018831798042610009558
0.018812738093011201895
0.018791018578824283253
0.018772206990839836876
0.018750290228424136563
0.018731413363947083117
0.01870916481145892471
0.018689848733532264669
0.018667315395537859707
0.018647618568801815897
0.018624857350903717412
0.018604861573765632543
0.018582132076505265134
0.018562511454794265037
0.018540329114285127726
0.018521253804393376236
0.018499327550493854799
0.01848036196422431568
0.018458147104757190171
0.018439128207519951685
0.018416657841614197944
0.018397609471689987948
0.018375168893996918912
0.018355993235584386336
0.018333236150742119458
0.018314063647829323389
0.018291233124476825173
0.018272812221471059629
0.018251419265438290768
0.018234346839621794201
0.01821424015385112935
0.01819787190893275633
0.018177862547449810671
0.018161105927146960204
0.018140500324196565801
0.018123142352723994181
0.018102080943693119736
0.018084356948711875768
0.018063127975059468933
0.018045170031582243031
0.018023682812230757549
0.018005502925559937338
0.017983822731068205975
0.017965466812417778264
0.017943780488396572637
0.017925660044480401512
0.017904400150694246147
0.0178873001870989215
0.01786713372493078586
0.017851397984356521392
0.017832160912915874518
0.01781733735159911694
0.017798098089935519145
0.017783315507933501742
0.017763786552171905581
0.017748570180675261182
0.017729277715448660269
0.017714182586476400622
0.017695542788139947271
0.017680913096024628711
0.017662570269895743608
0.01764790695924476141
0.017629078003838508787
0.017613923141803176919
0.017594274874306627121
0.01757834997971441382
0.017557884406046990466
0.017541212583454156987
0.017520251549097750482
0.017503292697052100224
0.017482766024383172843
0.017465955498496051751
0.017446165062431157056
0.017430198963331578615
0.017411328478282965537
0.017396737329233826624
0.017378844341121947592
0.01736569787049176139
0.017348512002268386828
0.017335757844952604662
0.017318823073025117754
0.017305701108859528753
0.017288193367755316093
0.017274229302965418698
0.017255922569140793449
0.017241748954634844582
0.017223185424790749681
0.017209361698928105772
0.017191695824560346978
0.017177848739571396214
0.017160539661433906605
0.017147080192196299114
0.017129775105821948289
0.017116903854107971134
0.017099887448049806704
0.017087186587724362968
0.017070101209386841917
0.017057448062242710346
0.01704056210294392984
0.01702819141798340638
0.017012218856532444755
3.9100402667588713833e-05
4.8744832645458352548e-05
7.2632991711489219909e-05
0.0001042801745600583003
0.00012431156342362212537
0.00013505861741629164303
0.00015104029984428158284
0.00019298982363234807908
0.00024578727362059132324
0.00027246008485975954953
0.00028434211537487971699
0.00030329867637477012522
0.00035012045894035852397
0.00043805398096687119848
0.00052210833759465250566
0.00057589138013133681429
0.00060051616885641837147
0.0006284432385856495145
0.00069437641688930283081
0.00077922109127109037523
0.00083962322317105819291
0.0008681618941762860725
0.00088383271320717255067
0.0009144671501061353916
0.00097061932594312181569
0.0010169598072838840607
0.0010436698419008783294
0.0010678493683027876285
0.0011166395276443045505
0.001210519731557578799
0.0013304831756637772872
0.0014631788157978672851
0.0015981757022765035164
0.0017239779077208271241
0.0018288495879217731271
0.0019068501079092365323
0.0019595329850143430352
0.001996509809786394668
0.0020346804231505697877
0.0020901694283639721261
0.0021698111941454859344
0.0022674466889608855223
0.0023668578586615095054
0.0024495452243583045251
0.0025042723180563179232
0.0025344081330266588457
0.002560230490555153067
0.0026111017331514473246
0.002749766596263397006
0.0030939242946538365528
0.0034302926767688511796
0.0036543964442046230311
0.0037627751463930061114
0.0037957247808283302651
0.0037997114218058678989
0.0038004309548061204933
0.0038055586839590435991
0.0038286345839265130755
0.0039105999440601935807
0.0040957331832664227098
0.004275403314011310546
0.0044216180588246365574
0.0045195237901507071335
0.0045681031666502149025
0.0045872051279339243202
0.0046091473577016791111
0.004669382663450669102
0.0048875948549889714281
0.0052992777283653955817
0.0056155998512113893331
0.0058081005352685673854
0.0059027825206394235816
0.0059416122192287382231
0.0059574655238716590563
0.0059686027147501461571
0.0059849638949974358001
0.0060172107941555601565
0.0060926275191714590607
0.0063183241887165789846
0.0067259216996968492278
0.0070542302560646589354
0.0072405768536912265207
0.0073074869947873022022
0.0073361808269062989477
0.007396321511999386436
0.0075950999257462020395
0.0080847838255031015398
0.0085209953598261306551
0.0088173800216526619644
0.0089925557392980300792
0.0090834413104309060655
0.0091225751658660196586
0.0091351526889933837294
0.0091415387376511704487
0.0091568022830883048779
0.0092131964920715379158
0.009429776330660510214
0.0097453879501025898052
0.009927347590473435332
0.0099881894202875961403
0.0099900242780348730287
0.0099600019008393280567
0.0098724276166735937255
0.0098264912044018527804
0.0098224650619033147814
0.0098497789352627908299
0.01000924688160113353
0.01057463579969944098
0.011248031379156215454
0.01167025011672512963
0.011871376182451485667
0.011973186013013529735
0.012127822725692745387
0.012517714828120867984
0.013200919827347870963
0.013810174411176729531
0.014206834368214656464
0.014369011560999895086
0.014386988469809238247
0.014330114633324781206
0.014154230432623447766
0.014086644405189068657
0.014110475458814613833
0.014347915568574502732
0.015197166448457029991
0.015993021102969427749
0.016362575911815564755
0.016467688399625438067
0.016504339991195333959
0.01658936907927815313
0.016775590684967863625
0.01689545510545584911
0.016917899155036272146
0.016876841719330140656
0.016621101529797146362
0.016148637726218096483
0.01589818356887236564
0.015831387278941549263
0.015840557026847938704
0.015933291158705339269
0.016145018728713687178
0.016276401424338650392
0.016333605653040976502
0.016350044823914545306
0.016350073666437963532
0.016344528343827800093
0.016316681601184563483
0.016217161188217494444
0.01608558663976219702
0.015987624032064311902
0.015925291393825095204
0.015893058888507571175
0.015882231965247656236
0.015881993361216512062
0.015885692409241900652
0.015901520534982171995
0.01596225936734453274
0.016136295146839570169
0.016327427459038777735
0.016478118705713598602
0.016582268104367098999
0.016642591224466086325
0.016672575774110603986
0.016693248701989800431
0.016725881239941002565
0.016796770582839706115
0.016902937872500183036
0.017025782047656042029
0.017152356384295776304
0.017272954617991581605
0.017383619420147770201
0.017487697876983850087
0.017594097362244331267
0.017714500533967746099
0.017856154180066276943
0.018018544141921770396
0.018191419103989699135
0.018360230625418944017
0.018508403317632406149
0.018624895590561966335
0.018704042298118665755
0.018750122177817143965
0.018772248317333362772
0.018783699570870275586
0.018797332370153796433
0.018826902147111586328
0.018897953529282314478
0.019050731072477445488
0.019246438265692389358
0.023261210416992687822
0.023308779306265878933
0.023338759383347420368
0.023354618400446898463
0.023360578452925950116
0.023361448389335300047
0.023360731609391855584
0.023359169741375817447
0.023356232620474495776
0.023352516641610202713
0.023346425839253479723
0.023332774122187059651
0.023299608625722452449
0.023254851724494714216
0.023209459866348688961
0.023165419904647908261
0.023124431938282615645
0.023086319638305027868
0.023051394437656479858
0.023018744186085210446
0.022988387315462727872
0.022959413390443678821
0.022931849930941938798
0.022905296337537787987
0.022880308259663504483
0.02285672568419195444
0.022834846799644564763
0.022814024678195359702
0.022794099001871483828
0.022774198192471669516
0.022754169359769003955
0.022733784890008029017
0.022713577636895989492
0.022693692098416113484
0.022674402490291158119
0.022655365042425573696
0.022636541038446682944
0.022617589158780627978
0.022598698482760255779
0.022579670676381082689
0.022560601462774960285
0.022541109155172916328
0.022520948292103465382
0.022499661695446152715
0.022477172424310243315
0.022453856761264878728
0.02243056323292849652
0.022407893842167288939
0.022386081297373797844
0.022364618376003713579
0.02234308246628515307
0.022320994495893826254
0.022298383785658806855
0.022275160492546623725
0.022251508832799884313
0.022227351894152161393
0.022202932775579643787
0.022178243241895625321
0.022153441475833292318
0.022128431398948770342
0.022103300699152891168
0.022077851479699733828
0.022052046278097293952
0.022025997557567723178
0.02199987004876828231
0.021974162086797588422
0.021948875344018878991
0.021923982641266437366
0.021898989681185365708
0.021873869966567927037
0.021848609366197355164
0.021823797866401900558
0.021799575561672876467
0.021776389304849645689
0.021753825317903568992
0.021731803080889927626
0.021709422255575327315
0.021686582349789148422
0.021662497502090781454
0.021637639119756541667
0.021611612615330271642
0.021585307552219573646
0.021558539173401936734
0.021532190280798422372
0.021506019102248738473
0.021480576056719977163
0.021455449218440621195
0.021430792095643528411
0.021406457846664200817
0.021382676215487873839
0.021359382928036615978
0.021336534207146241882
0.02131339345236887492
0.021289786842498388542
0.021265046649974788523
0.021239879099361123199
0.021214106800009263631
0.021189003550931905656
0.021163928779588756651
0.021139770805879785215
0.021115332194372976593
0.021091364259346760679
0.021067081322397703674
0.021043277655946057009
0.021019402237340091555
0.020995695453089383703
0.020971666314360908751
0.020947474318545763333
0.020922931008122622881
0.020898641112923513341
0.020873788926028057078
0.020849351721678104771
0.020823721434650104001
0.020798675963243959397
0.02077269411240514202
0.020747721892775801422
0.020722048096373044818
0.020697138192973019849
0.020671310073524705453
0.020646278960227734678
0.020620112026944581451
0.020595147202104462786
0.020568673626991072767
0.020543947020844006979
0.020517996828399984177
0.020494279741990036048
0.020469719342548362007
0.02044720627544815289
0.02042335222844219797
0.020400974757920846414
0.020376506657623503355
0.02035352491987153789
0.020328432534839659118
0.020305345533509072675
0.020280276111751500273
0.020257683664427678094
0.020232996791714443624
0.020211440352993326197
0.020187478492958110116
0.020166555357810294485
0.020142766871387905725
0.020121402839210780766
0.020097243471744553889
0.020075538414192285047
0.02005106189732056704
0.020029206305260217197
0.020004258906718988542
0.019981870683990463761
0.019956626279023104847
0.019934176259282402471
0.019909458259536098879
0.01988829171684155725
0.019864717288955127672
0.019844886255964470922
0.019821959965935002229
0.019802336996555914422
0.019779268883160776304
0.01975977513079547887
0.019736476168646020085
0.019716996216917210411
0.01969347333391406607
0.019673524010656699007
0.019649591427527691306
0.019629074204911098334
0.01960459201433293816
0.019583755657388922378
0.01955933403327930406
0.019539044515555412801
0.019515422445416201469
0.019495825603075261218
0.019472581808167733347
0.019453088919322004263
0.019429556405736965463
0.019409875338742488965
0.019385683947361592727
0.019365514290612919485
0.019340864621733701995
0.019320344078447251879
0.019295531614286969696
0.019275257862636088063
0.019250774234273421853
0.019231490085167279869
0.019208540342577747062
0.01919083730441611263
0.019169292285623563965
0.019152236909499298356
0.01913051672751198834
0.019112678150010706246
0.019089983696053382939
0.019071397140060324799
0.019048334777805282086
0.019029908379308874133
0.019007110460491999371
0.01898884168338490358
0.018966125241380180078
0.018947630659428067734
0.01892452660966608205
0.018905604835422397392
0.018882094874778657806
0.018863100836164801294
0.018839880500929787055
0.018821822811127573299
0.018799749419008682932
0.018783172833855985018
0.018762241199665879998
0.01874673469092110259
0.018726014897095789175
0.018710558033752829055
0.018689407987603930822
0.018673268385268834008
0.018652055961845180609
0.018636060158056678288
0.018615538245194934719
0.018600306466595457194
0.018580454229296713281
0.01856544920575275634
0.01854511179000304516
0.018529371226321131316
0.018508012608928540305
0.018491288416467188682
0.018468951745119331631
0.018451547135546451234
0.018428960920029463511
0.018411489169643774355
0.018389259913356898607
0.018372059225353974676
0.018350558080385919596
0.018334084112291121338
0.01831351086673567094
0.018298411957042327869
0.018278842623109727017
0.018264970858141552773
0.018246010734936340958
0.018232532523027138172
0.018213745535489017646
0.018199899790585193082
0.01818070255766435217
0.01816605420227008702
0.018145971568749287572
0.01813096972122828221
0.018110659389598750268
0.018096025672824655323
0.018076503206049907013
0.018062040146121893791
0.018042935594621944961
0.018028763387492166559
0.018009610211445540445
0.017995928323789021214
0.017977100700158312602
0.01796367025881680235
0.017944872272343644765
0.017931632082345879547
0.017913162006933359971
0.017900218373419464479
0.017882730373828179676
4.0713029940373756104e-05
4.7590656250030686537e-05
7.2024458276599340515e-05
9.8263705672321295008e-05
0.00011275691975379890908
0.00012437429739574923392
0.00014792174134168063868
0.00020729020580451289267
0.00026997521452815499525
0.00030448316062490750431
0.00031873440385511199197
0.00033105065153433375089
0.00035642027140630821395
0.00042559050310251109054
0.00053183629312828959411
0.00060281707356029366491
0.00063500274936978938229
0.00067285733254403095292
0.00074332328732561387449
0.0008224691076458463812
0.00087766875715208512911
0.00090323760894590475381
0.00091698044147956261646
0.00093982936287946669974
0.00099993558937085916423
0.0010867900290273571455
0.0011487168606239780456
0.001183366483494697986
0.0012070205651398052335
0.0012439914449012805936
0.0013284399686015547007
0.0014995446050913609215
0.0016820723451042034115
0.0018419677888436413599
0.0019686232635757637197
0.0020639131934639841012
0.0021299371255723473749
0.0021684302206170058373
0.002189799874299797576
0.0022162213461757625244
0.002276995113657050325
0.0023856372282072472839
0.0024939349071821073807
0.0025764627673021960226
0.0026250849717881510025
0.0026502998278157127374
0.0026762077823190852724
0.0027309411971461533195
0.0028885964024224779385
0.003240728702422551559
0.0035579625565469044993
0.0037677896972292236957
0.0038696710604742669617
0.0039033982778417697541
0.003916072310383546598
0.0039369798139709394347
0.0039864501221580595988
0.0040980194066707713307
0.0042439767356803092049
0.0044046800486722270662
0.0045569398189209608593
0.0046755830714669145004
0.0047460611114246509593
0.0047753485676799061269
0.0047895028373499421576
0.0048161795478529195735
0.0049101970204334429576
0.0052596656402272750144
0.0057689208544947547658
0.0061054658097357585034
0.0062696664589050911387
0.0063222311106379425888
0.0063282300628348655755
0.0063255651150526011339
0.0063248165695250933502
0.0063301857246077179037
0.0063604357626972501949
0.0064821768049963812697
0.0068378948077687509363
0.0072091932446448694916
0.007460415278558779964
0.0075842187455458561635
0.0076181055643518352447
0.007627551632163945966
0.0076580288570648651428
0.007800416604327138799
0.0082501101615237680542
0.0086952788556563243016
0.0089737957342630059882
0.0091252893655562571096
0.0091957542321246966283
0.0092246047649086910375
0.0092431302051388022217
0.0092768820444465022179
0.0093638408241692901168
0.0096312678955341648329
0.0099859647545447981221
0.010224454720140394373
0.010334417946995360857
0.010356536684541416127
0.010345389429971520168
0.010278466856597093596
0.010206698455693188204
0.010189582703728800039
0.010202621749930992565
0.010301655691849345015
0.010717658488938507436
0.011542298226730859229
0.012174439758200639866
0.012544415953914301448
0.01270308162223963977
0.012771289518500643367
0.012874033770340086863
0.013150384051436798602
0.013890222637806171405
0.014606461275638794178
0.015015972573901656059
0.015150547789249318997
0.015148312670178153139
0.015022848241483680379
0.014762349432419743372
0.014681172869569159012
0.014714336532832527835
0.015015264942080509478
0.016041255835978231875
0.016954314319384530818
0.017370666503191457136
0.017481650475209591783
0.017507555931903971691
0.017568666149929423187
0.017775227453560919072
0.01796649601523636966
0.01801432409921729233
0.0179822299843052473
0.017750884423491705005
0.017193154083751226863
0.016846856772403009939
0.016721109120611810095
0.016708460780285330771
0.016731158617564457353
0.016832744779135086488
0.016982926124496911663
0.017097599204731826761
0.017183187454787515747
0.017241882708004731273
0.017271066817555962014
0.01727671993679231327
0.017267725194955861612
0.017210194523810559003
0.017059718010766583562
0.016946006194480313367
0.016887167326335748158
0.016866757398008649926
0.016863997924441556653
0.016866071038320287756
0.016872187733587375169
0.0168876788075356353
0.016926881555631465709
0.017020022048387109526
0.017140375698953842082
0.017262871784823895921
0.017378039675524672297
0.017484765764757121548
0.017591471401912976008
0.017706626315747975992
0.0178364936001751892
0.017976787862518404937
0.018116875945397358655
0.018243551399838974642
0.018347357196064405932
0.018433126552306104695
0.018509126212876200052
0.0185901086976404048
0.018688485309800724476
0.018810464162594117687
0.018952699690144562961
0.019104067816915398792
0.019256173479601422505
0.019396989799109847635
0.019521396282988427717
0.019628477060940750787
0.019721779095670841087
0.019811749412004548559
0.019906842540511688472
0.020016421809490519274
0.02014216690830650941
0.020282794661430892519
0.020431391009367475681
0.02058038442106893337
0.024422996279161338778
0.024485636328514769067
0.024534000511362060587
0.024569650517434347275
0.024594732705993896382
0.024610708711926002762
0.024620577852323105583
0.024625919285008218002
0.024628470135034732924
0.024628877366769764273
0.024626421908932643462
0.024620997768310292492
0.024611353749956758896
0.024590367116074776654
0.024541156813547636978
0.024485180702435809658
0.024431811161325880932
0.024383335858749292935
0.024337633963465981485
0.024296085369822837535
0.024256513563191920563
0.024220690416276311613
0.024186325136265996588
0.024155064433541401092
0.024124468451854355622
0.024096520984420680134
0.024069016149436059382
0.024044103817768634757
0.024019286785014803964
0.023996399307796761891
0.023972800737744662941
0.023950674251772000739
0.023927778607499936014
0.02390646288692451632
0.023884095100292022235
0.023862968665571818172
0.023840639417475210926
0.023819804206755623016
0.023798056295954262557
0.023777727205099515734
0.023756128317018600227
0.023735588423633432326
0.023713176787456366479
0.023691093444337729679
0.02366647302546986617
0.023642426854044662488
0.023617064811001110131
0.023593951992956285063
0.023570265341713553253
0.02354859433797088647
0.023525301565593976366
0.023503271274101487226
0.023479219288208300065
0.023456219083739380388
0.023430862323367544764
0.023406266109494158756
0.023379105426910989918
0.023352767368415884575
0.023324265340117011219
0.023297263853761442098
0.023268574481956318806
0.02324168387017457385
0.023213254422984164194
0.02318671609797868724
0.023158729428448598942
0.023132786239198281641
0.023105529548578421922
0.023080059713582835174
0.023053012935388604576
0.023027464489510450496
0.02300046485891221737
0.022975278822393061656
0.022949101769290429498
0.022925018441869948749
0.022899957704610066772
0.022876348230910111686
0.022850716402834213986
0.02282563976940719247
0.022798217044344596532
0.022771835477975087281
0.022743706283650497874
0.022717071335954991396
0.022688765032721634057
0.022662192322404458439
0.022634403039093652782
0.022608691367875764777
0.022581731140188791851
0.022556537729325351616
0.022530005313702479441
0.022505601265264484068
0.022480282013875314828
0.022456729887986741356
0.022431404669516843281
0.022406724150743601021
0.022379695114508376536
0.022353539838047640359
0.022325769957121589099
0.02229969683933909208
0.022272718175615560665
0.022247862834368709734
0.022222129545879404366
0.022198354582851416439
0.022173164873938167041
0.022149885787433300222
0.022124449804128670793
0.022101054326202643208
0.02207453914057229058
0.022050126711271027941
0.022022504394651129522
0.021997500762046123812
0.021970013969491046513
0.021944939843914001293
0.021917437647448492072
0.02189177606533203313
0.021863960067131177345
0.021838489228564350597
0.021810833452998879683
0.021785825712212887606
0.021758014460512065114
0.021733135896170086704
0.021705291859802314236
0.021680413458128520304
0.021652376301811535053
0.02162736949034091416
0.021599424718367413178
0.021575431969561045115
0.021548581322666598981
0.021525910378180638377
0.021499894776532031682
0.021477280891860909412
0.021451083663508847821
0.021427977439659722653
0.021401203623361602507
0.021377886942512924068
0.021350354043365923906
0.021326978705403735331