/*--------------------------------*- C++ -*----------------------------------*\
  =========                 |
  \\      /  F ield         | OpenFOAM: The Open Source CFD Toolbox
   \\    /   O peration     | Website:  https://openfoam.org
    \\  /    A nd           | Version:  12
     \\/     M anipulation  |
\*---------------------------------------------------------------------------*/
FoamFile
{
    format      ascii;
    class       volScalarField;
    location    "0.0063";
    object      nut;
}
// * * * * * * * * * * * * * * * * * * * * * * * * * * * * * * * * * * * * * //

dimensions      [0 2 -1 0 0 0 0];

internalField   nonuniform List<scalar> 
75962
(
5.0786345365781492058e-07
5.7250146092294734881e-07
6.9366761417250383564e-07
7.9391510344971697819e-07
8.4101411858667041867e-07
8.8316788621553520396e-07
9.7258731694586872915e-07
1.1569368658289173399e-06
1.2976382563095233534e-06
1.3602312810861303197e-06
1.3825832071765945867e-06
1.4092231881997975352e-06
1.4737400080765936318e-06
1.6328124619699114359e-06
1.7773213467229782438e-06
1.853700948029435434e-06
1.9087030286315664111e-06
2.0046134554880074856e-06
2.1412237855202824946e-06
2.2687721399228936776e-06
2.3483903199922147843e-06
2.3804567509730074313e-06
2.3910800196141462249e-06
2.4074451354201786961e-06
2.4534316470784706266e-06
2.5267339805671282688e-06
2.5815820747866818154e-06
2.6153533238637679497e-06
2.648709328595957244e-06
2.7134480424557496038e-06
2.8510448085275607223e-06
3.0276184059951889486e-06
3.1909238714246939566e-06
3.3139959849787289875e-06
3.4014687851525964967e-06
3.4713894374373578723e-06
3.5312088377110523325e-06
3.5741256488828654905e-06
3.5973751791592764175e-06
3.6190665326845143637e-06
3.6625891522868167083e-06
3.7333674123764494606e-06
3.8176857292081076308e-06
3.8935430447810642679e-06
3.9449653530324976084e-06
3.9718973647145207879e-06
3.993086373362105264e-06
4.0366766425867647175e-06
4.1571281361089284078e-06
4.3805586371270903299e-06
4.5650689265563522729e-06
4.6763919033062784143e-06
4.7226064200540257711e-06
4.7326094274084314626e-06
4.7332295059732506408e-06
4.7376118161166583004e-06
4.7557120043040373709e-06
4.8129448580408922063e-06
4.9031492858100418161e-06
4.9985129251504278229e-06
5.0908739801532442373e-06
5.1681846190105033408e-06
5.2191560134315534796e-06
5.2425387943301328958e-06
5.2520553528224375535e-06
5.2687665600133654301e-06
5.3234110584770521528e-06
5.4987027808832290973e-06
5.701380767891312825e-06
5.8318872161540585819e-06
5.8982025695737538834e-06
5.9243143944366875045e-06
5.9335906665383504805e-06
5.9383188147591831619e-06
5.942539865616058438e-06
5.9489585059543450971e-06
5.9641872552891927586e-06
6.0027005639479829311e-06
6.1157480655740917497e-06
6.2822331741818825633e-06
6.405932281493194719e-06
6.4673908664674247719e-06
6.4848747698640818226e-06
6.4972448143789815559e-06
6.5373720749389127281e-06
6.6878912973450727926e-06
6.9373253513418944795e-06
7.1160482796326510673e-06
7.2230394156681807365e-06
7.278697270383987059e-06
7.3035353834556272396e-06
7.3109632097188402493e-06
7.3092013779127369314e-06
7.304675696443014806e-06
7.3022600134176669201e-06
7.3135997627914798018e-06
7.3832220436653608046e-06
7.4979647844230389429e-06
7.5539813674437180751e-06
7.5632399996519932386e-06
7.5544072690083458618e-06
7.5219574283504432439e-06
7.4752972009461529903e-06
7.454626749121295226e-06
7.4500654098495344764e-06
7.4662056175546644116e-06
7.55903878974582602e-06
7.7915039375653022207e-06
7.9846197502039626011e-06
8.100253209620697449e-06
8.1503010660565639869e-06
8.1709676695241047315e-06
8.2045949733155100882e-06
8.2983824907305140799e-06
8.5393359753558218951e-06
8.7731029066706341763e-06
8.9189564266536805037e-06
8.9763242039811510375e-06
8.9789862380609679235e-06
8.9572144168381723141e-06
8.8959706278468367552e-06
8.8659949530618970551e-06
8.865965566288668123e-06
8.9279827484825483171e-06
9.1674780204209018901e-06
9.3938278328561808107e-06
9.4953282142886531833e-06
9.5164762661787810741e-06
9.5098744198088129722e-06
9.5010262045994722601e-06
9.4983284433318879657e-06
9.5035663686247900559e-06
9.4976785548724732168e-06
9.4748889949463028853e-06
9.3847717440788616395e-06
9.2543434522433671023e-06
9.1848867987667254405e-06
9.1627805826883233672e-06
9.1595425165775907036e-06
9.1807675652938054689e-06
9.2403399384227965981e-06
9.2783615482243119327e-06
9.2944695557110599188e-06
9.2964532405465400165e-06
9.2913881455781967348e-06
9.284358713264517424e-06
9.2745509786758051812e-06
9.2548581183555497152e-06
9.2155696852879831048e-06
9.1792618257109514373e-06
9.1519891606392086091e-06
9.1334873502902611957e-06
9.122401215063732414e-06
9.1153665776472960077e-06
9.1099703616145253417e-06
9.1077669907124150279e-06
9.1173755460066620884e-06
9.1585498323838846385e-06
9.2120255612007552069e-06
9.2594142075684711233e-06
9.2978973944682440751e-06
9.3250232178621723055e-06
9.340141414396736929e-06
9.3453328986100956267e-06
9.3444979755526754692e-06
9.3423265388922202757e-06
9.3430852746040218506e-06
9.353711266765430546e-06
9.3851328258093883697e-06
9.4201351217964181245e-06
9.4521617291857097323e-06
9.4802810641483032083e-06
9.506535186747834277e-06
9.5336731573120831688e-06
9.5641359225603573077e-06
9.5983748093691563025e-06
9.6348231656808278501e-06
9.6701934793391536115e-06
9.7003618859680968561e-06
9.722571995025493195e-06
9.7350010295845266313e-06
9.7392790377357118045e-06
9.7383937210448794032e-06
9.7373847206188539062e-06
9.7409770881882974322e-06
9.7526106912539349146e-06
9.7748954267772758975e-06
9.8065395596385663592e-06
1.052956083214595411e-05
1.0528497284903402109e-05
1.0524324920811238979e-05
1.0517972994076550607e-05
1.0510586611317851265e-05
1.0502893560965331467e-05
1.0494752623189000648e-05
1.0486570042999576871e-05
1.047838745678349165e-05
1.0469936662919175296e-05
1.0460358956325478786e-05
1.0447617951882454313e-05
1.0431450082298815402e-05
1.041483213758198936e-05
1.0398212724430863448e-05
1.0382201491992741144e-05
1.0366610786228098285e-05
1.0351806932552684641e-05
1.0337441322589380015e-05
1.0323739548676317518e-05
1.031017902843822407e-05
1.0296975719155852748e-05
1.0283818020173623382e-05
1.0271208168280031634e-05
1.0258890629473039883e-05
1.0247212239931493085e-05
1.0235669871117725481e-05
1.0224498075120107586e-05
1.021316364300761762e-05
1.0201907765296694256e-05
1.0190314694743082331e-05
1.0178824321438787086e-05
1.0167223075763267946e-05
1.0155969502496652214e-05
1.014469874382040629e-05
1.0133689595354881935e-05
1.0122523233773354594e-05
1.0111484082482075406e-05
1.0100240553085468504e-05
1.0089057846094946752e-05
1.0077588672357550679e-05
1.0066027641347201829e-05
1.0054050887616768149e-05
1.0041961648171069692e-05
1.0029601106151680797e-05
1.0017423568592876426e-05
1.0005263555523195084e-05
9.993453473806362879e-06
9.9815832486376816323e-06
9.9698398289902330607e-06
9.9577760949496531853e-06
9.9457227068255406636e-06
9.933352494883408235e-06
9.921094134197456802e-06
9.9086265626659939383e-06
9.8964002482393315639e-06
9.8840746329132855733e-06
9.8720404545107787484e-06
9.8598454173656081411e-06
9.8477726768010707785e-06
9.8353865689187091654e-06
9.8230014787124642691e-06
9.8103222140636047827e-06
9.7977824248808611227e-06
9.7851738657292431593e-06
9.7728536516919087767e-06
9.760456045598065914e-06
9.7481744283924609573e-06
9.7356908084401644045e-06
9.7233446042582994735e-06
9.7110015530016651468e-06
9.6989918337177131807e-06
9.687103581565336194e-06
9.6755063903728542044e-06
9.6639442106019414128e-06
9.652507870056134862e-06
9.6409167073573564572e-06
9.6291815421491153045e-06
9.6170718560087491936e-06
9.604712242195868603e-06
9.5920841159438353728e-06
9.5794339227009504129e-06
9.5667592179317779673e-06
9.5542530563071732303e-06
9.5417899618877152681e-06
9.5295620622351363631e-06
9.5173406517173332451e-06
9.5053836189860879653e-06
9.4934123888433077682e-06
9.4817147481522989837e-06
9.4699753009352469196e-06
9.4583780750725950917e-06
9.4465675137675072495e-06
9.4346962661812882038e-06
9.4225666365906681496e-06
9.4104595906795526121e-06
9.3983415829780407174e-06
9.3863726323094925707e-06
9.3744195033602893821e-06
9.3624596143341891965e-06
9.3504088550823399845e-06
9.3383766921200838317e-06
9.3263460937301366689e-06
9.3144927319693202874e-06
9.3025920920171322934e-06
9.2908663715137326203e-06
9.2789950385243595706e-06
9.2672778444607256508e-06
9.2554427836943825917e-06
9.24363620991898189e-06
9.2317255428409238967e-06
9.219704181087897275e-06
9.2076813415380513435e-06
9.1956194404110073824e-06
9.1836296867169142335e-06
9.1716508666209573783e-06
9.1596635002810115401e-06
9.147636324830083328e-06
9.1356026770354251506e-06
9.1234557672439142896e-06
9.1114262482773914821e-06
9.0992522438821525665e-06
9.0873588987964830783e-06
9.0753872801121225833e-06
9.0637416635959513919e-06
9.052057233447193045e-06
9.0406385915506207678e-06
9.0290632521427197354e-06
9.0176822327483358179e-06
9.0059671760175981511e-06
8.9944720326789428638e-06
8.982686975256375976e-06
8.9712521253037611087e-06
8.9596274682708115274e-06
8.9484539753749920484e-06
8.9370071961164572884e-06
8.9261062699496210776e-06
8.9147382998826520356e-06
8.9038579684134990297e-06
8.8924089062595153233e-06
8.8813387930154875742e-06
8.8698423639340018596e-06
8.858787933651097237e-06
8.8473427288597240094e-06
8.8363913182927835679e-06
8.8249225846078788751e-06
8.8139189514722905764e-06
8.8024151009353326675e-06
8.7913621623934730387e-06
8.7798920609374714964e-06
8.7690238124476702596e-06
8.757723651922633552e-06
8.7471285702706775872e-06
8.7360042372386751428e-06
8.7255205175963361085e-06
8.7144285579843607984e-06
8.7040188668396735526e-06
8.6928967263795330251e-06
8.6824872595782134199e-06
8.6713051024589889127e-06
8.6608117565310752833e-06
8.6495826921573199094e-06
8.6390197926571895794e-06
8.6277551798832698057e-06
8.6171376485038103589e-06
8.6058928467293789496e-06
8.5953738483137730929e-06
8.5842686123746233823e-06
8.5738909929321569192e-06
8.5628628909501944223e-06
8.5525301613768664471e-06
8.5414553545167899642e-06
8.5311295134809336153e-06
8.5200135772787832886e-06
8.5096966917405253178e-06
8.4986024130887313647e-06
8.4882700507473355766e-06
8.477116369084770309e-06
8.4667986372120335344e-06
8.455642257547286899e-06
8.4455121679789257758e-06
8.4347030541302780787e-06
8.4249002363786584731e-06
8.41440521160353365e-06
8.404782922802157217e-06
8.3943294617245709058e-06
8.3846367730216946686e-06
8.3740651508073325179e-06
8.3642522243192331905e-06
8.3535931810534245768e-06
8.3437117532965115199e-06
8.3330288111759906775e-06
8.3231068209504308417e-06
8.3123772589930534964e-06
8.3024168009526311404e-06
8.2916562561873021576e-06
8.2816692122056828558e-06
8.2709218871284340884e-06
8.261003565735603531e-06
8.2503688735949524296e-06
8.2406996341250829261e-06
8.2303316476054514474e-06
8.220992410823709827e-06
8.2108553993629444242e-06
8.2017436324977424541e-06
8.191624023149820708e-06
8.1825381614762830794e-06
8.1723677174210816639e-06
8.1631953640591802386e-06
8.1530919693088704656e-06
8.1439596680719648675e-06
8.1340196814083741661e-06
8.1250092328220087959e-06
8.1151545287617952193e-06
8.1061546279645209091e-06
8.0962075308377923287e-06
8.0871134285902176862e-06
8.0769961506397052554e-06
8.0677407929091920558e-06
8.057449578165928872e-06
8.048033869931402301e-06
8.0376390062528217201e-06
8.0281669422443370298e-06
8.0178830249707566858e-06
8.0084578849729136569e-06
7.9983574064964953654e-06
7.9891417985435889923e-06
7.9792686924502652721e-06
7.9703845555598133309e-06
7.960751659868518104e-06
7.9522139966540028393e-06
7.942759394658509121e-06
7.9343271532164577072e-06
7.924946542954134954e-06
7.9164462282155128231e-06
7.9069506262375911538e-06
7.8982726248334965663e-06
7.8886084082828735982e-06
7.8798956385544696642e-06
7.8701860024636068497e-06
7.8615655047940659144e-06
7.8520747897682949761e-06
7.8434627677722201284e-06
7.8340674992584357191e-06
7.8255584756991328584e-06
7.8161789257460212102e-06
7.8078181952496469284e-06
7.7985190397089133082e-06
7.7902106789555873714e-06
7.7809092699702372433e-06
7.772624306536269896e-06
7.7633814790584286666e-06
7.7551734352371406105e-06
7.7461521877411723984e-06
5.3140359653782613938e-07
5.9295342074966067737e-07
7.2313123660376722986e-07
8.6603087227828380072e-07
9.4504911478709999039e-07
9.8433153607646832162e-07
1.040119849644677948e-06
1.1746336827722614773e-06
1.3248766181422143997e-06
1.3941600394281657521e-06
1.4232877305771296632e-06
1.4688159775065374131e-06
1.5767149935036336624e-06
1.7624142450307593233e-06
1.9229319310727793383e-06
2.0183541328811011133e-06
2.0597029314966981006e-06
2.1054913174887479123e-06
2.2114461640316013975e-06
2.3410941515928722188e-06
2.4285948032351865556e-06
2.4679173979436252163e-06
2.4883497416227698351e-06
2.5292510459336067543e-06
2.603904975115322382e-06
2.66354769086822273e-06
2.6964672486519385226e-06
2.7255836619739347061e-06
2.7850787299607569112e-06
2.8976556218696081406e-06
3.0356972234351854015e-06
3.1812919784139135048e-06
3.322549197549438094e-06
3.4485151426349500572e-06
3.5494793426665631409e-06
3.6219473517359491587e-06
3.6691418038877488356e-06
3.7010439199858840751e-06
3.7336403365926688685e-06
3.7815183001168575357e-06
3.850145047526769183e-06
3.9330539921488699107e-06
4.0155880875742178452e-06
4.0823656954967194374e-06
4.124928014100819229e-06
4.146837533682745334e-06
4.1649916594239707587e-06
4.2031310698262717304e-06
4.3098838112711452563e-06
4.568151832436155391e-06
4.8070462149155884313e-06
4.9584489786227219327e-06
5.0281712118398901875e-06
5.0467465169998750315e-06
5.0459186964770695992e-06
5.0428868034509121836e-06
5.0427601096651040915e-06
5.0544434573959877262e-06
5.1044925971363978618e-06
5.2201926479864212388e-06
5.3298351020043476612e-06
5.4165268932972981643e-06
5.4724585229181564055e-06
5.4980545269998168677e-06
5.5057553920033363001e-06
5.5150637258422967156e-06
5.5469883619371750658e-06
5.6706363042055028459e-06
5.9005618763078855442e-06
6.0701290176866779975e-06
6.1692217698884145637e-06
6.2151336932356260806e-06
6.2312908087222019574e-06
6.2352950768514127109e-06
6.2367889189568617576e-06
6.2409798608687011546e-06
6.2533879656344416444e-06
6.2879637595927952829e-06
6.3985029616112383132e-06
6.5970800577207698603e-06
6.7516933306936880403e-06
6.8357733170815831766e-06
6.8626482572470559878e-06
6.8713232914489686122e-06
6.8945357581045544905e-06
6.9813051732938497023e-06
7.1976036767871948513e-06
7.384367058518020485e-06
7.5067099499143890505e-06
7.5758253067143897669e-06
7.6088396317284341238e-06
7.6199722037229527423e-06
7.6199349844479291754e-06
7.6172852568863409816e-06
7.6183175664920591802e-06
7.6363279051886833181e-06
7.7198775359596153958e-06
7.8426789579938331821e-06
7.9102581597462070612e-06
7.9290834580551773706e-06
7.9243439174627769265e-06
7.9070139513260112883e-06
7.8667320717522503596e-06
7.8428706051495571149e-06
7.8357813996451184811e-06
7.8411384770515740446e-06
7.8985296968755508488e-06
8.1123008320683740634e-06
8.3611446143993723622e-06
8.511068675837972768e-06
8.578354748894627372e-06
8.6090999140381128653e-06
8.6583524602658589733e-06
8.7898695174185280534e-06
9.02024045091048295e-06
9.2198547773685501569e-06
9.345126222631011743e-06
9.3920246739370226403e-06
9.39147319288360947e-06
9.3665357241940675452e-06
9.30245780116660969e-06
9.2736116227173323476e-06
9.2748862208597718042e-06
9.3455962466683522753e-06
9.6108881777096030763e-06
9.8530623027378965562e-06
9.959761285723736269e-06
9.9849555347732521049e-06
9.9891235621045386086e-06
1.0007765370305933563e-05
1.0056763104665339292e-05
1.0085736717199402513e-05
1.0085504687020010304e-05
1.0066371039341896762e-05
9.9832920227446332861e-06
9.8334452435137928818e-06
9.7498684132219625559e-06
9.7224448687477437408e-06
9.7184374872410419913e-06
9.7398930941424000622e-06
9.7975930415115635038e-06
9.8306714990944397406e-06
9.8411718753177869056e-06
9.8393168402281314523e-06
9.8324912112876132936e-06
9.8240010939451175931e-06
9.8088591119809859394e-06
9.7722201621840232917e-06
9.7257191884833344152e-06
9.6892826240257093502e-06
9.6636128783601283644e-06
9.647086221365961669e-06
9.6370829854568675781e-06
9.6303191131381334154e-06
9.6247557595158480165e-06
9.6228513146583047029e-06
9.634431626431654537e-06
9.6799622520891581999e-06
9.730400703458632502e-06
9.7684536721050543444e-06
9.7925142328094380345e-06
9.8035341458447399366e-06
9.805568825274174052e-06
9.8048335630316074696e-06
9.8075760690827248705e-06
9.8214689692407448608e-06
9.8455961402587272642e-06
9.8744393204740243849e-06
9.9041991585470457365e-06
9.932068261005648984e-06
9.9569294026356584669e-06
9.9797639533556714e-06
1.0003119716956782097e-05
1.0030299223316911194e-05
1.0063305197849243671e-05
1.0101922234927455103e-05
1.0143213360127736704e-05
1.0183105219621551448e-05
1.0217044318832660288e-05
1.0242072590327250801e-05
1.0256729088568086411e-05
1.026226127729587625e-05
1.0261204828560171949e-05
1.0257206970644899019e-05
1.0253784654031717578e-05
1.0254680253873901352e-05
1.0266792224484079608e-05
1.0300971202153144898e-05
1.0346527213715007079e-05
1.1086158082824478188e-05
1.1089808663923748596e-05
1.108925864700073553e-05
1.1085342920632224788e-05
1.1079069606035470786e-05
1.1071583822433857881e-05
1.1063724059179411507e-05
1.1055670525245211378e-05
1.1047302175875843119e-05
1.1038761484903072355e-05
1.1029672189110112859e-05
1.1018812285477180938e-05
1.1003358853495377159e-05
1.098515391390828474e-05
1.0966799592927932192e-05
1.0948769797526508606e-05
1.0931470787723263099e-05
1.091486424434737307e-05
1.0899025402495608075e-05
1.0883738898410382322e-05
1.0869008731113968333e-05
1.0854619001212898355e-05
1.0840574042154576403e-05
1.0826776656872356969e-05
1.0813356426214809039e-05
1.0800275695358293443e-05
1.0787606851867861732e-05
1.0775199770623636891e-05
1.0763017371568562954e-05
1.0750852328103346201e-05
1.0738665346101269207e-05
1.0726400473359293415e-05
1.0714183639218040147e-05
1.0702050960972650027e-05
1.0690069292144446575e-05
1.0678158780566740082e-05
1.066631038795120904e-05
1.0654442688844652636e-05
1.0642599654097862147e-05
1.0630735084077703759e-05
1.0618872387568315045e-05
1.0606922732899542127e-05
1.0594827971766008855e-05
1.0582477947807036528e-05
1.056985131993354585e-05
1.0557033592295864992e-05
1.054422455454777336e-05
1.0531568673845748279e-05
1.0519124622597286514e-05
1.05067760234520368e-05
1.0494424409391900737e-05
1.0481956674477055664e-05
1.0469377984394307232e-05
1.0456665042103990457e-05
1.0443859137565602408e-05
1.0430941993576273486e-05
1.0417971397502916005e-05
1.0404947582034476065e-05
1.0391908849857337736e-05
1.0378831622395570517e-05
1.0365736676114390292e-05
1.0352576472110356517e-05
1.0339341296004054039e-05
1.0326057337416452055e-05
1.0312763546057249553e-05
1.0299577700896296839e-05
1.0286501284125241975e-05
1.0273528444397164676e-05
1.0260542789861007673e-05
1.0247536779907666363e-05
1.023450561044907975e-05
1.0221586783820517125e-05
1.0208813606664416036e-05
1.0196292459410710146e-05
1.0183928759992946921e-05
1.0171705758246289529e-05
1.0159413553143915998e-05
1.0147027990310950558e-05
1.013436302622494594e-05
1.0121526253767641225e-05
1.010842299030859891e-05
1.0095260157410944736e-05
1.0081994909623387714e-05
1.0068834873053859259e-05
1.0055724714913649332e-05
1.0042793604129956767e-05
1.0029945496542424829e-05
1.0017216243277500003e-05
1.0004571805756821398e-05
9.9920663851836714127e-06
9.9796856961705205708e-06
9.9674203730085005672e-06
9.9550985067139658374e-06
9.9426791674778731522e-06
9.9300052929706226102e-06
9.917240757733324739e-06
9.9043431416645514367e-06
9.8916095962678046678e-06
9.8788907087453730531e-06
9.8663942505807361572e-06
9.8538411166413217475e-06
9.8414066646454746284e-06
9.8289078046723306749e-06
9.8165298983770226071e-06
9.8041449115706798089e-06
9.7918090820340665162e-06
9.7794082626457538057e-06
9.7669800460386396057e-06
9.7544807451270755712e-06
9.7420517739338349182e-06
9.7295022132729123857e-06
9.7170592548018423632e-06
9.7043464759014824668e-06
9.6917771971485410751e-06
9.6789969707354251484e-06
9.6664600945408881219e-06
9.6537694085777067481e-06
9.641267214891235566e-06
9.6285617381246031319e-06
9.6160518232279115514e-06
9.6032856855392674219e-06
9.5908070518714156315e-06
9.577983461872782394e-06
9.5655733752774236504e-06
9.5528862027579676178e-06
9.5407281943484248605e-06
9.5283848777286128673e-06
9.516529874050181636e-06
9.5043745208015658173e-06
9.4925735903821411232e-06
9.4802953790210173907e-06
9.4683707000352618417e-06
9.4559619555451240695e-06
9.4440267579007129104e-06
9.4316383945408421635e-06
9.4198348608492697877e-06
9.4075536524161103839e-06
9.396009588785956751e-06
9.3839155438052871479e-06
9.3725370444807002633e-06
9.3605023707650235511e-06
9.349040998285998601e-06
9.3369412153336518116e-06
9.3254229399376917258e-06
9.3132718130922304272e-06
9.3017389479872026681e-06
9.2894957269869125129e-06
9.2778522134216215685e-06
9.2655500689148256432e-06
9.2539012327037122751e-06
9.2417322761930029639e-06
9.2303965814101671816e-06
9.2185127671276480347e-06
9.207509472035138305e-06
9.1957996654964155818e-06
9.1848664564125272918e-06
9.1731428156978190783e-06
9.1622559191290634765e-06
9.1504943021190527811e-06
9.1396264607798390674e-06
9.1278312716332449234e-06
9.1168745747192404501e-06
9.105005692527233082e-06
9.0939379439764447306e-06
9.0819600074057236095e-06
9.0708328973462406484e-06
9.0588808768996721005e-06
9.0478913708820451041e-06
9.0361374035627229739e-06
9.0253242463568768755e-06
9.013677395970337271e-06
9.0029099596956758267e-06
8.9912187081380435914e-06
8.9804290520319657093e-06
8.9686049014272314315e-06
8.9577186780473415248e-06
8.9458031157306840163e-06
8.9348488435114171362e-06
8.9229087007940005864e-06
8.9120250670147247704e-06
8.9001755504402728673e-06
8.8895357492800351838e-06
8.8780573747509094524e-06
8.8678003846289166169e-06
8.8566654746761255834e-06
8.8465777530075532159e-06
8.8354228511059088968e-06
8.8251742426312633353e-06
8.8138140971189598487e-06
8.8034111604684872528e-06
8.7919835317551683408e-06
8.7816338226236881413e-06
8.7702831565804759221e-06
8.7599848097836709019e-06
8.7486681834512619658e-06
8.7383326360384104656e-06
8.7269417521995652846e-06
8.7165227189410950375e-06
8.705053407579635614e-06
8.6946322155856591371e-06
8.6832437819825917115e-06
8.6730522341824519236e-06
8.6619431469545024187e-06
8.6521088912842234836e-06
8.6412806477113733767e-06
8.6317114820685349392e-06
8.6209513786494520728e-06
8.6114115004935271784e-06
8.6005693729252781889e-06
8.590886560772495467e-06
8.5800432861905423e-06
8.5704060993446843112e-06
8.5597354074238957112e-06
8.5502891170712053164e-06
8.5397903006188591356e-06
8.5304156810442880897e-06
8.5198263542841480361e-06
8.5103030317582572791e-06
8.4994987288993814292e-06
8.4897664680164421059e-06
8.4787522040785410029e-06
8.4688750421251078485e-06
8.45781345598704743e-06
8.4479302696676970602e-06
8.4369618536963884257e-06
8.4271539732206065328e-06
8.4163682139823475196e-06
8.4067441782563937744e-06
8.3961892895018422188e-06
8.3868984729518190505e-06
8.3765915851954433766e-06
8.3675985798178308231e-06
8.3574479639182805337e-06
8.3485607234654775626e-06
8.3384664350760188576e-06
8.329511338034361462e-06
8.3193400376606259665e-06
8.3102174785586077995e-06
8.2998592317026823978e-06
8.2906701031495866073e-06
8.2802740345356354572e-06
8.2711823850572582112e-06
8.2609810088053588309e-06
8.2519427019516681225e-06
8.2418515861756095736e-06
8.2328946464471485243e-06
8.2228075422656692441e-06
8.2139768198869293883e-06
8.2039788297560953842e-06
8.1952193123581607595e-06
8.1852421625787727947e-06
8.1765393718358175639e-06
8.1666514539146533463e-06
8.1580303181377374473e-06
8.1483816184461913446e-06
5.5682356874285430534e-07
6.0125113026690445927e-07
7.3875099128884492119e-07
8.6256385242190251812e-07
9.2346379216826762433e-07
9.6914796392779668044e-07
1.0559693105684376538e-06
1.248935395688933384e-06
1.424606513248878926e-06
1.5120868333031394158e-06
1.5460808291667559331e-06
1.57453218531722304e-06
1.6324626381873645698e-06
1.7822432331104495805e-06
1.991125108524132452e-06
2.1186674963275649796e-06
2.1730918023114346497e-06
2.2352409411224343461e-06
2.3476042980750626881e-06
2.4677626808895320285e-06
2.5476191015735121512e-06
2.5827568745139178815e-06
2.6005149493566214544e-06
2.630811498602446114e-06
2.7115452354929863879e-06
2.824932576300463185e-06
2.9023935723304151898e-06
2.9438680735297111191e-06
2.9710768852344986653e-06
3.0140462192612994096e-06
3.1122224897152894471e-06
3.3041626924224850386e-06
3.4971364246830811821e-06
3.6571821733968327423e-06
3.7783390807540890687e-06
3.8661105332724796091e-06
3.9248041313290256562e-06
3.9574247083850898262e-06
3.9741449967779361824e-06
3.9952282500576643883e-06
4.0466681643546898272e-06
4.1391475809236183964e-06
4.2291675398269737023e-06
4.2956828274050510232e-06
4.3330941458471120445e-06
4.3508643754620210818e-06
4.3690090306490939997e-06
4.4102659446596888094e-06
4.5321526614870529505e-06
4.7969552127805956376e-06
5.0230611557415206361e-06
5.1657504793577750581e-06
5.2317036189632395388e-06
5.2509076679792911674e-06
5.2557825531843129532e-06
5.2660950134174439697e-06
5.2952882158945405517e-06
5.3650196457138347832e-06
5.4558988864691513468e-06
5.5543807763398459897e-06
5.6457023583850089604e-06
5.7148406443163460067e-06
5.753830433693587465e-06
5.7675972588316106571e-06
5.7721378127608063898e-06
5.7841425551651355532e-06
5.836015563517371458e-06
6.0352271880851202353e-06
6.3164966914304117079e-06
6.4939758320918958699e-06
6.5764362769674083225e-06
6.5995278749801723184e-06
6.5981327710922359152e-06
6.5921690174369918303e-06
6.5871862486185537447e-06
6.5853802256153789985e-06
6.5964376194369532197e-06
6.654369142936123297e-06
6.8294245296990932788e-06
7.007742055901402754e-06
7.1240686477303393241e-06
7.1781398119466842915e-06
7.1892510441527460933e-06
7.1886982908485396409e-06
7.1979575951425725516e-06
7.2591780910499386603e-06
7.4598881121776062971e-06
7.6535189188700094421e-06
7.7699911254551413291e-06
7.8300383319412787247e-06
7.8548462118244313313e-06
7.8617178087172487127e-06
7.8641175439504467959e-06
7.8729411886019511134e-06
7.9041253916066921603e-06
8.010317475184179013e-06
8.1509414683299111145e-06
8.2421676118747868044e-06
8.280776484098746482e-06
8.2839533426446396722e-06
8.2737859950331532974e-06
8.2413505076360663905e-06
8.2067505253462619095e-06
8.194116967379991962e-06
8.1936151824336309047e-06
8.2273406899085128115e-06
8.3852137055553053189e-06
8.6958605988788513621e-06
8.9249872471876831262e-06
9.0536377745666023984e-06
9.1045901644116295718e-06
9.1226884197864170932e-06
9.1528489709650782459e-06
9.2437469918164923296e-06
9.4931709690333375748e-06
9.7284827449526098733e-06
9.8574496382316098488e-06
9.8948973047646220184e-06
9.8873741991686981383e-06
9.8397957080737328422e-06
9.747236361706581025e-06
9.713462716044811543e-06
9.7175264249248293846e-06
9.808956361952225132e-06
1.0130826079746555255e-05
1.0408631757460904156e-05
1.0528845110397076599e-05
1.0555314252854883252e-05
1.0555808795123088756e-05
1.0566789463546502048e-05
1.0621184039271332889e-05
1.067091916819538493e-05
1.0677817745467414764e-05
1.0660992266993289044e-05
1.0585242083398384346e-05
1.0410464776946415133e-05
1.0297617170295502389e-05
1.0251780837902004206e-05
1.0240710838632891778e-05
1.0240501185035755799e-05
1.0264303277512333017e-05
1.0302872835140683592e-05
1.0330459566830143634e-05
1.0349112033257495125e-05
1.0359588766660627254e-05
1.036117381620425426e-05
1.0355695484968996311e-05
1.0345848166562565963e-05
1.0321540216877882277e-05
1.026923416067378772e-05
1.0227761722151333017e-05
1.0202837382087508918e-05
1.0189555974955386662e-05
1.0181643496057888221e-05
1.0175204569790435432e-05
1.0169986442088437635e-05
1.0167576694771561694e-05
1.0172255514894780392e-05
1.0193052387212737459e-05
1.0221906370543272895e-05
1.0251238522247608034e-05
1.02782394630770095e-05
1.0302598252404720236e-05
1.0326809458588113785e-05
1.0353350652649509077e-05
1.0384022662553128038e-05
1.0417538964919449278e-05
1.045079915112353801e-05
1.0480014003388932656e-05
1.0502518244688345913e-05
1.0519751843837635505e-05
1.0534108200248551405e-05
1.0549792137718216119e-05
1.0570304282691307115e-05
1.059735315863880438e-05
1.0629934200027770018e-05
1.0664874639500507706e-05
1.0699812663220250073e-05
1.0731421787557366118e-05
1.0758327676754768189e-05
1.0780326676298403497e-05
1.0798429811161922693e-05
1.0815518011685393063e-05
1.0833899570132058017e-05
1.0856105941236244661e-05
1.0882560668101791174e-05
1.0912879077712592265e-05
1.0945168622860973985e-05
1.0977385575488743098e-05
1.165502712350529288e-05
1.1661885378381382726e-05
1.1665315476818479212e-05
1.1665700069857179663e-05
1.166355896952561374e-05
1.1659248372420306887e-05
1.1653488363574582821e-05
1.1646660880102138822e-05
1.163918202200772292e-05
1.1631205983585105707e-05
1.1622566708563732875e-05
1.1613229852397269798e-05
1.1602904244532436494e-05
1.1589919176074599765e-05
1.1570294489418174889e-05
1.1549055646517925424e-05
1.1528438840243180504e-05
1.1508988345911589369e-05
1.1490205942266458217e-05
1.1472417958600268295e-05
1.145511078515995399e-05
1.1438702597061762526e-05
1.1422651481912304876e-05
1.1407344806059643125e-05
1.1392204854533639216e-05
1.1377699349857102899e-05
1.136330828912710916e-05
1.1349540629535370803e-05
1.1335807127002427676e-05
1.1322539150438603342e-05
1.1309111931341282321e-05
1.1296039764778794033e-05
1.1282794882845640914e-05
1.1269933236543664868e-05
1.1256836251574543984e-05
1.1244044889196444661e-05
1.123098213475361486e-05
1.1218281765450323844e-05
1.1205376175310260522e-05
1.119281490828206291e-05
1.1179966445707115641e-05
1.1167379814206021123e-05
1.1154365388506776109e-05
1.1141438749485545141e-05
1.1127922853416293402e-05
1.1114546619815164047e-05
1.1100865008876403819e-05
1.1087717962970292644e-05
1.1074445993560256903e-05
1.1061660834845476442e-05
1.1048509997465155683e-05
1.10356708636732988e-05
1.1022371289330862984e-05
1.1009330833158998382e-05
1.0995747593232286696e-05
1.0982350972378671699e-05
1.0968361629142454346e-05
1.0954573173163109002e-05