/*--------------------------------*- C++ -*----------------------------------*\
  =========                 |
  \\      /  F ield         | OpenFOAM: The Open Source CFD Toolbox
   \\    /   O peration     | Website:  https://openfoam.org
    \\  /    A nd           | Version:  12
     \\/     M anipulation  |
\*---------------------------------------------------------------------------*/
FoamFile
{
    format      ascii;
    class       volScalarField;
    location    "0.0063";
    object      p_0;
}
// * * * * * * * * * * * * * * * * * * * * * * * * * * * * * * * * * * * * * //

dimensions      [1 -1 -2 0 0 0 0];

internalField   nonuniform List<scalar> 
75962
(
99568.696198297213414
99753.141802002457553
99556.074023061082698
99297.569748201640323
99318.138170396880014
99541.782635923009366
99726.751521258032881
99684.070616034936393
99566.506939761326066
99455.715485299311695
99329.240533489908557
99298.185282090562396
99377.811851390273659
99479.951517110093846
99533.14260407857364
99493.66689741704613
99434.611158956904546
99426.708766722716973
99402.921193745511118
99326.445800820714794
99257.684340788982809
99275.228603682306129
99360.404575549691799
99407.872747915025684
99380.217841807883815
99346.30911370330432
99348.094437407868099
99365.781365115151857
99398.175710523239104
99443.321235227573197
99454.69988669603481
99402.033847678845632
99319.631385635060724
99256.196019172319211
99217.762563196592964
99190.0248130618711
99157.807384468062082
99123.681183288412285
99092.606993758905446
99079.448513885625289
99094.170484280199162
99111.65795104650897
99114.386295268835966
99100.324049514019862
99075.973128381432616
99047.249341043032473
99021.384750483019161
99011.860118760581827
99026.216309568291763
99048.461805623024702
99054.287222092942102
99037.423831583859283
99013.170672585212742
98996.188111422990914
98990.058913171058521
98996.403911074914504
99018.392228849566891
99038.404821778283804
99032.446800129429903
98998.105952194833662
98963.419301715650363
98962.184668702626368
99000.426443070871755
99049.068278993872809
99066.474084282657714
99036.102024944018922
98981.815804222744191
98943.835741054135724
98938.787718761610449
98954.426455077948049
98976.968212375897565
99005.03664389057667
99037.628919500362827
99065.281514632530161
99079.978689027368091
99081.44973188143922
99070.997620968293631
99047.328059402119834
99018.761109095939901
99002.538106366831926
99006.224539341521449
99022.779897413973231
99045.353874439373612
99073.423496390401851
99104.73684986110311
99133.010899668399361
99151.185133294056868
99160.52710108285828
99167.552854243665934
99170.592077438530396
99161.801947353204014
99142.367689469072502
99125.387222061879584
99122.993260426519555
99136.216943273218931
99156.839445192163112
99175.739147324318765
99187.948073197170743
99192.585404932149686
99190.890441102572368
99187.127271550532896
99185.558941114722984
99188.516756536555476
99197.533973706013057
99212.513290305461851
99229.575737577237305
99239.446458499165601
99232.859562233395991
99210.503034706285689
99183.545656654561753
99166.100031776280957
99162.812504969668225
99166.273162782090367
99165.498635799929616
99158.748578187107341
99154.699114030678174
99159.783206961772521
99168.63344385176606
99167.582861596296425
99148.505508630682016
99116.039041314186761
99082.194939014618285
99058.853132419579197
99052.832226527461899
99063.18644455485628
99084.529718549340032
99107.568715202040039
99125.707836196321296
99135.977059079843457
99141.005746587878093
99146.376812602058635
99154.685187023336766
99163.399080232833512
99164.407651331639499
99149.450487342852284
99118.557689701221534
99082.844483528155251
99059.769711928194738
99059.789798691344913
99078.935451617930084
99101.12028435645334
99110.819985704205465
99102.49734717332467
99081.749882906093262
99058.330665272049373
99038.428755456450745
99022.035378888889682
99005.272928931750357
98987.727215908278595
98974.959196688781958
98975.014669881216832
98990.788406101433793
99016.047284661312005
99038.508253282649093
99047.910579362433054
99040.823991302633658
99021.621308729998418
98998.155950637636124
98978.606148929175106
98968.800517689043772
98972.763134768916643
98991.605941536196042
99022.887136880250182
99060.181230769390822
99094.899509551178198
99120.366677937112399
99133.695073160619359
99136.49413584935246
99132.420337583476794
99125.124266288723447
99116.240215774465469
99106.617162770184223
99098.109003406614647
99092.658809751170338
99090.837372905793018
99092.154025407944573
99094.897209537593881
99097.290616207304993
99097.451782627220382
99093.756583309004782
99085.369670817264705
99072.69448722092784
99057.935026346051018
99045.154267546371557
99038.993729252484627
99043.375496780354297
99059.074492236744845
99083.293926041747909
99454.271960957863485
99460.56991195428418
99456.196096526677138
99443.719502835127059
99427.875730944317183
99413.384307176384027
99402.256427756292396
99393.361171967422706
99382.774990131918457
99366.575700104702264
99342.674354113056324
99312.684868284515687
99281.258670479088323
99253.965482010637061
99235.131153905167594
99226.554007443541195
99227.237207894577296
99234.013835822421242
99242.484962186412304
99248.129765400663018
99247.354967459104955
99238.910416026425082
99224.834752302063862
99209.890282002888853
99199.27129886293551
99195.819202603568556
99198.495782695448725
99203.164890770363854
99204.939673027489334
99201.078013365331572
99192.581218845400144
99183.107937819353538
99176.699942168605048
99175.566612192997127
99179.938892602440319
99189.185210195122636
99202.303894317083177
99217.923085310685565
99234.186611792625627
99248.354058153752703
99257.013320799640496
99257.024327272403752
99247.565324584647897
99231.397471880263765
99214.160996603313833
99202.181807262153598
99199.719476173268049
99207.33711872981803
99221.518942205264466
99236.385281052833307
99246.911476205685176
99250.877381226280704
99249.323172083328245
99245.691186304931762
99243.777440231700893
99245.903316514159087
99251.850919156946475
99258.737920107581886
99262.634523312299279
99261.065722246217774
99253.495351662393659
99241.393241856960231
99227.42562368545623
99214.202119685272919
99203.150041541579412
99194.131810448408942
99186.042649738257751
99177.944431256095413
99170.04595449527551
99164.040997942633112
99162.670665948855458
99168.635454939430929
99183.207447287146351
99205.206799585401313
99230.897018660485628
99254.918879369579372
99271.892501834663562
99278.015650064975489
99272.078066135523841
99255.490617524686968
99231.503717045954545
99204.150947577072657
99177.340906482553692
99154.322380230747513
99137.446883464930579
99128.01872728804301
99126.360813075458282
99131.898571573969093
99143.253632451829617
99158.376420426546247
99174.885800079326145
99190.649094967564452
99204.272861783581902
99215.276108278703759
99223.953911679767771
99231.026318745702156
99237.218844479531981
99242.998644352148403
99248.421784397447482
99253.283779018020141
99257.384215394675266
99260.891191019065445
99264.612916410129401
99269.827250970687601
99277.768380752488156
99288.87271532669547
99302.373573198274244
99316.299893244591658
99328.044731345187756
99335.336102456349181
99337.211598903813865
99334.32778573910764
99328.597412781498861
99322.14565863730968
99316.400940564999473
99311.309599384840112
99305.480192572751548
99296.884317725518486
99284.144950602130848
99267.386919729891815
99248.554383204114856
99230.950182368789683
99217.991744075232418
99211.958383260236587
99213.116024963586824
99219.559086290042615
99227.973488475749036
99234.991152071757824
99238.476686160080135
99238.101081622051424
99235.371513748628786
99232.73956016478769
99232.573652398699778
99236.164617480913876
99243.323690791221452
99252.792901644221274
99262.938674553734018
99272.699244613846531
99281.815650149917929
99290.504433050271473
99299.015692418965045
99306.839959311211715
99312.685123511037091
99314.9282251385157
99312.39865251268202
99305.109858886164147
99294.629494031643844
99283.676138897673809
99275.291424632858252
99271.86244079793687
99274.188625179580413
99281.332420311970054
99291.132563696432044
99301.155646081169834
99309.637196228359244
99316.12141880375566
99321.232690945762442
99326.171514523972291
99331.894213459847379
99338.50946334071341
99345.056432227633195
99349.898740285163512
99351.365787259768695
99348.674542888620635
99342.373613947595004
99334.202088912628824
99326.45579735620413
99321.093639783925028
99319.046515218535205
99319.883801379517536
99322.09410514603951
99323.713632840517676
99323.011569756679819
99319.085795758539462
99312.043924079203862
99302.740973391191801
99292.394603979657404
99282.264944491602364
99273.503307938051876
99267.073658877066919
99263.837086351923062
99264.446610645769397
99269.283356750253006
99278.361615003537736
99291.09229433145083
99306.16114286633092
99321.612938659367501
99335.304700549182598
99345.427366296004038
99350.876222841645358
99351.363523143343627
99347.339957091302495
99339.700072675492265
99329.451911669966648
99317.564023316124803
99304.819062790964381
99292.099586931988597
99280.156681869470049
99269.897001645687851
99261.970929311501095
99257.235827340540709
99256.120615246007219
99258.281943079331541
99263.092614193854388
99269.534668309875997
99276.451891996359336
99282.986958025998319
99288.943082160447375
99294.840003935634741
99301.702827073982917
99310.639991138552432
99322.360612271819264
99336.794546860837727
99352.890055700117955
99368.68584144381748
99381.750915153766982
99389.829107776517048
99391.455253213774995
99386.375307698021061
99375.575887737548328
99360.920290972717339
99344.657885613938561
99329.017071312380722
99315.86986701436399
99306.445622178653139
99301.257958812493598
99300.214442133597913
99302.75019156865892
99308.05926220380934
99315.29231502841867
99323.64585235415143
99332.396856306368136
99340.875731254549464
99348.402479087046231
99354.284602386454935
99357.925916646621772
99358.93172675135429
99357.161913105403073
99352.769285834219772
99346.228129104958498
99338.216483936979785
99329.408563517528819
99320.296588743207394
99311.102370983440778
99301.84993851245963
99292.497373859034269
99282.965809857705608
99273.281998266946175
99263.678400887132739
99254.448321468327777
99245.796173869341146
99237.703196130256401
99229.962359507408109
99222.321144250847283
99658.773000412635156
99802.010586233242066
99527.95913664145337
99498.061827524696128
99571.109071555823903
99521.392743521661032
99516.227630800349289
99556.431474347409676
99573.238792220916366
99514.259120103131863
99467.971951594547136
99434.46856227175158
99424.723752184538171
99481.697494132167776
99559.622967005285318
99574.542613513869583
99544.955177636264125
99523.50320564712456
99460.650402997736819
99360.108801137786941
99310.25423443519685
99360.100939500727691
99450.611966538839624
99470.378589547763113
99411.293061386531917
99354.233156233458431
99337.849593399136211
99352.480686476890696
99391.104195371357491
99423.058589156600647
99404.357216306132614
99338.014088705400354
99274.290174301306251
99241.780721305607585
99218.13552856282331
99190.782264561348711
99174.538569803145947
99171.544472059918917
99157.021815139756654
99136.903237533711945
99141.162553316360572
99167.8229330637987
99180.779773813017528
99160.371590795097291
99133.985914944423712
99120.059985037820297
99113.273844225303037
99110.742369125728146
99115.786073970593861
99120.082975078767049
99109.703333918791031
99087.005411534351879
99060.890181323440629
99035.406852866115514
99013.978086976378108
99009.816969418563531
99027.496643845326616
99048.590042703639483
99048.42767678918608
99023.939148817284149
98994.898091207491234
98984.235292579891393
99007.234672268939903
99051.496737948458758
99077.041165667906171
99052.271882523709792
98994.839756941641099
98953.09853536132141
98957.397182161032106
98997.021365471358877
99042.053646507964004
99074.404527450140449
99093.718639190206886
99104.795923335695988
99114.390115010493901
99124.631315923252259
99125.369288637986756
99106.734692177167744
99073.786704565602122
99049.78015912923729
99044.285298158574733
99058.688638569743489
99086.156613361323252
99121.711208084481768
99163.830033693418954
99201.848069849307649
99224.093541303271195
99231.477977438451489
99229.019104952458292
99215.544270156562561
99189.624376775944256
99162.624698436280596
99153.54437963332748
99168.192704410161241
99196.551960923039587
99219.147625309429714
99228.467948083183728
99227.485738065981423
99222.063966847970732
99218.805829123972217
99220.361887882419978
99226.27643101249123
99233.206684234639397
99238.720235695829615
99242.213796049312805
99242.148192521301098
99235.928546526934952
99221.573960363675724
99202.056892224296462
99185.813285432072007
99181.614596820480074
99189.421813989960356
99198.487063121632673
99194.95748698002717
99175.944848893559538
99151.638051300818915
99134.939448975754203
99129.764314591651782
99129.087140975680086
99121.469076351437252
99103.101240206917282
99079.581776400402305
99061.580373707722174
99057.039640068425797
99066.849387369700707
99084.809689725923818
99102.805568823721842
99114.793579505902017
99120.969656837056391
99123.803770765749505
99126.294636799721047
99129.603057318396168
99130.859108508273493
99125.170290378475329
99107.476623024631408
99079.955987878594897
99053.113295884919353
99040.430194412707351
99048.066803291425458
99068.287932993320283
99084.463435979530914
99083.781938361775246
99064.89809606547351
99039.272351572843036
99019.497498531345627
99010.969834366856958
99007.986608285922557
99000.9637104672438
98986.525902064255206
98971.270160686282907
98966.322600054132636
98977.220140272009303
98998.364481718206662
99016.934517740941374
99022.368473580776481
99011.389904969822965
98989.110793739731889
98964.483200486458372
98945.990561123078805
98940.087263784938841
98949.100505791240721
98971.384982571922592
99002.196067525306717
99035.443760663576541
99065.352609345529345
99088.3416490831587
99103.855959584223456
99112.705660466570407
99116.632240341452416
99116.40248862124281
99111.86025944854191
99102.380385076176026
99089.174064454375184
99075.156078180021723
99062.878159850253724
99054.497280718918773
99050.935864906670759
99051.541773335702601
99053.742862507468089
99054.281344397735666
99050.14881325463648
99040.616632256627781
99027.832537021691678
99016.552603694493882
99012.893629578422406
99021.693413173896261
99043.938297548316768
99075.29648154003371
99107.259816125704674
99426.584617346219602
99441.487636530087912
99445.428357433629571
99438.623867657152005
99424.989431540830992
99410.224076482729288
99398.801246951290523
99391.713317047440796
99386.026953292835969
99376.494872401686735
99358.53948855579074
99330.68228732085845
99295.84920640719065
99260.059322565881303
99229.8124819304212
99209.609540203411598
99200.862509223530651
99202.08416435008985
99209.862352451586048
99219.980310736384126
99228.266777024473413
99231.443144536649925
99227.874717505765148
99218.701224031421589
99207.330642761284253
99197.731096200979664
99192.329813232005108
99190.66739990998758
99189.986120425266563
99187.357479426180362
99182.091586615730193
99176.148106283610105
99172.430436219190597
99172.898766301252181
99177.736745250862441
99185.816998272377532
99195.453374085205724
99205.63471699783986
99216.413197965172003
99227.855862318639993
99238.693962571880547
99246.016797012343886
99246.76119920083147
99239.27159941616992
99225.09364040697983
99208.931680776702706
99196.886048307394958
99193.664060405033524
99200.707426158362068
99215.749537249022978
99234.215102574249613
99250.975246142450487
99262.358480072303792
99267.241478577212547
99266.859008955769241
99263.525844756295555
99259.195934655886958
99254.858318286234862
99249.371256216632901
99242.544528368816827
99233.709450525944703
99222.831560525955865
99210.939643474368495
99199.629224767253618
99190.301220019333414
99183.519165829551639
99178.755322136159521
99174.754457854331122
99170.401489928772207
99165.576937207340961
99161.502239782566903
99160.518838758580387
99165.104616593205719
99176.607640590358642
99194.183957716595614
99214.555463179305661
99232.887381017644657
99244.522513663876452
99246.586770253445138
99238.744956345573883
99222.93050445173867
99202.439490343022044
99180.705397830839502
99160.401908898638794
99143.175003648677375
99130.037757651487482
99121.802319016351248
99119.193707006314071
99122.623272910481319
99131.780321325699333
99145.395115242703469
99161.314806795853656
99176.983265279603074
99190.219468998591765
99199.760478355616215
99205.530016100994544
99208.434584524438833
99210.063095598568907
99212.14316274394514
99215.936261312046554
99222.012053371538059
99230.20780824686517
99239.998910490423441
99250.887666723472648
99262.609693388527376
99275.00840763967426
99287.82839120515564
99300.380643403565045
99311.43895318453724
99319.508912433782825
99323.467393611339503
99323.040079854356009
99318.932879923697328
99312.742298875265988
99306.227884283027379
99300.526494782141526
99295.632554139796412
99290.421393419397646
99283.214526844516513
99272.748264491849113
99259.061292021651752
99243.710952100664144
99229.390020591265056
99219.018275687776622
99214.577570294597535
99216.428840864013182
99223.266614219377516
99232.586551909014815
99241.628945800985093
99248.383132785922498
99252.175108065450331
99253.589296362741152
99254.018248608917929
99255.040307412666152
99257.576272523612715
99261.746460335576558
99267.154906917305198
99273.335615557720303
99280.199911707110004
99287.917884637994575
99296.658210855996003
99305.96133946676855
99314.472376127174357
99320.155334777227836
99321.001252072368516
99315.883266871285741
99305.33079032797832
99291.649291572728544
99278.323230842128396
99268.947077677366906
99265.974151916831033
99269.825358175919973
99278.993149364250712
99290.637100437932531
99301.914917819580296
99311.093750145664671
99318.010641755085089
99323.806757354410365
99330.071242068355787
99337.856266357091954
99346.985692733273027
99355.998772594568436
99362.736471476673614
99365.243667615926825
99362.780357008901774
99356.23600759668625
99347.919928831135621
99340.617210613301722
99336.478901399328606
99336.362015346894623
99339.433206742760376
99343.679137769664521
99346.559698963814299
99346.004308472402045
99340.963782090155291
99331.692248360588565
99319.411268651077989
99305.832384756431566
99292.705778382442077
99281.546027246658923
99273.524770913587417
99269.463869973478722
99269.774016630763072
99274.433167747876723
99282.968014478552504
99294.487059036167921
99307.693860464845784
99321.046303518523928
99332.920193269776064
99342.007874335249653
99347.544530406725244
99349.269051362731261
99347.334963785673608
99342.16843750870612
99334.118529598403256
99323.665102757993736
99311.271105256790179
99297.719685581454542
99284.005940717892372
99271.172729722762597
99260.37711392811616
99252.66595507528109
99248.51782705867663
99247.856321889776154
99250.093796276225476
99254.237694345822092
99259.149988567733089
99263.918662030278938
99268.219004968937952
99272.460745332413353
99277.668523101106985
99285.127635593933519
99295.839572731973021
99310.011425875447458
99326.771679707497242
99344.159354179471848
99359.46773796256457
99369.951685632913723
99373.61046675092075
99369.768583920056699
99359.256890987118823
99344.101742066661245
99326.937700849361136
99310.415813479659846
99296.723051611275878
99287.23491690128867
99282.391232678899541
99281.890016049030237
99284.973938469454879
99290.666460913969786
99297.992378538663615
99306.087411717555369
99314.208581532526296
99321.737257044936996
99328.122541775432182
99332.796440489837551
99335.260540423550992
99335.227025099171442
99332.643390872282907
99327.642581881649676
99320.5420914448041
99311.849442728198483
99302.123282514818129
99291.802243423531763
99281.147634787237621
99270.301039509373368
99259.429391420373577
99248.835718119269586
99238.943285896399175
99230.261849302740302
99223.27131689467933
99218.224146837819717
99215.002175927875214
99213.089749398292042
99211.74767964775674
99416.320954627168248
99502.479031782670063
99457.692259708419442
99507.906704538909253
99577.312835134333
99454.799148801641422
99334.908881164330523
99318.095684571380843
99336.358643773477525
99422.779198236385128
99510.437401325150859
99492.721341966738692
99434.682260632587713
99466.262580266775331
99541.948041074705543
99555.63706105183519
99527.095349798968527
99507.096860587713309
99461.258348303890671
99412.138386541293585
99406.060867576743476
99431.143095398932928
99450.383185499347746
99436.125685472899931
99386.666820951606496
99329.010553728803643
99286.517690517794108
99287.089865023648599
99331.319557718539727
99367.201752145439968
99355.189558569516521
99318.039669428457273
99294.305440241121687
99280.694758214624017
99250.290233248917502
99212.474854222993599
99205.943789610493695
99229.113029212021502
99233.607855689770076
99211.091871384953265
99205.278789811680326
99228.053913464318612
99236.813644700872828
99212.928184269112535
99193.041464869034826
99198.749098552172654
99208.510259609058267
99202.507813738076948
99185.24023547876277
99171.745464108797023
99165.045303230566788
99157.134762427667738
99137.988905162943411
99106.029531181004131
99073.207180218814756
99057.427372893609572
99064.703413978873868
99082.749638566645444
99093.298457117358339
99084.437132543738699
99055.002364860716625
99020.877592433607788
99014.36992290665512
99046.326224859280046
99077.204059729876462
99063.132524281681981
99012.286302900844021
98979.49273117800476
99004.838341165304882
99072.278672984044533
99131.727169863588642
99151.535400319160544
99140.572801133937901
99128.951044632121921
99138.502650803784491
99164.23381611147488
99180.820239702617982
99169.603508425236214
99137.577297973009991
99108.355160665756557
99101.544433870498324
99118.872082303583738
99148.267065641048248
99186.644089579684078
99229.862873005200527
99267.591389867695398
99290.446836965042166
99295.065958663326455
99281.662683059010305
99252.894279140949948
99218.101322287489893
99195.574694852097309
99201.021740091964602
99231.001470873772632
99263.954365953715751
99277.853879492016858
99269.679801673017209
99253.963304702265305
99244.113321525903302
99245.518719742001849
99255.88130704582727
99267.77536399679957
99273.006987411077716
99268.902826263089082
99257.058867683837889
99240.610801627553883
99222.517488482684712
99205.900161588884657
99193.388756617991021
99189.492502312830766
99196.355823068719474
99210.943130218802253
99221.539429993572412
99215.984205226690392
99190.109335093409754
99152.837510266777826
99120.465101512076217
99103.772556599025847
99101.702769129391527
99103.918778306600871
99100.31169793594745
99089.129901143300231
99076.714664896775503
99070.271682623002562
99073.613261072256137
99082.396239311739919
99091.745582288873265
99096.980459542930475
99099.700128098033019
99101.426815673752571
99102.218518599926028
99100.772687979479088
99094.579209643532522
99082.368508949977695
99064.888628824031912
99046.557767056321609
99035.536347669331008
99037.678676389186876
99051.232574714405928
99066.286479736896581
99069.550929305856698
99053.720028679410461
99024.669101848325226
98997.025648472292232
98984.13698574474256
98988.382017510637525
98998.480856723021134
99000.327662542127655
98988.929872929104022
98972.483824830007507
98963.663729438427254
98969.541876332194079
98985.049681562071783
98998.455239789007464
98999.299931947447476
98985.5276655167836
98962.428674736554967
98939.361313799861819
98923.608625317181577
98920.511040725948988
98931.493706080276752
98953.303031290546642
98980.700396737505798
99008.846619490606827
99033.719259750228957
99053.6561843152449
99069.220947716443334
99082.14644204635988
99093.319321834787843
99101.734924548014533
99103.865180014094221
99096.249942028807709
99078.452426624644431
99054.583571143841255
99031.264382653811481
99014.508225773155573
99007.418099434682517
99009.135275358363288
99015.621181931361207
99021.669497620561742
99022.924354116868926
99017.853317107685143
99008.912323411248508
99001.310484703673865
99001.140703048018622
99013.275258379653678
99038.484842751902761
99071.738012941059424
99103.745087287854403
99403.113814612821443
99415.750091563008027
99416.19541614674381
99406.407088688167278
99391.77316138567403
99378.390455113651115
99370.011705699376762
99366.432580626118579
99363.601384004112333
99355.691830492927693
99338.256600455628359
99310.602177980268607
99276.258957262238255
99241.419124892287073
99212.218950524271349
99192.629460715630557
99183.829327080849907
99184.378170045281877
99191.546411852337769
99201.849499564850703
99211.832301938789897
99218.296820144591038
99219.267357912205625
99214.643068551085889
99206.293902278659516
99197.16635035762738
99189.580700875667389
99183.875250031458563
99179.008771171385888
99174.189235417288728
99169.944209636683809
99167.793107530538691
99169.290486638710718
99174.854928421336808
99183.253700548346387
99192.15008823350945
99199.654889246958192
99205.678986300830729
99211.480799418408424
99218.094180949847214
99225.108182619456784
99230.422056410840014
99231.148700595804257
99225.569273540284485
99214.410775491516688
99201.272071308267186
99191.208454652747605
99189.196883639087901
99197.664486481502536
99215.515322367646149
99238.87174116121605
99262.152643034336506
99280.332593435770832
99290.29427287793078
99291.0333320061618
99283.959029982317588
99270.826182571079698
99253.197502177587012
99234.48311508038023
99217.038083233797806
99201.537651735139661
99188.247159009450115
99177.405916079500457
99169.294506698613986
99164.028062593526556
99161.316317454024102
99160.320837001316249
99159.871942539568408
99158.940178001430468
99157.296764560873271
99155.863766327762278
99156.420153322600527
99160.820029132562922
99169.85768878943054
99182.410946387972217
99195.498520774039207
99205.33287083315372
99208.91557053833094
99205.217396765568992
99195.449738221257576
99182.300612822233234
99168.622411161428317
99156.232799091929337
99145.573725871145143
99136.236124476286932
99127.84349936102808
99120.869303487241268
99116.753826183470665
99117.276542748048087
99123.486088254372589
99134.947143799101468
99149.662475679026102
99164.702723219088512
99177.167466346916626
99185.129170285799773
99188.179479451762745
99187.405952416331274
99185.028120767659857
99183.744799995678477
99185.980289347891812
99193.182392842005356
99205.490681670475169
99221.852564963599434
99240.419674676115392
99259.08331964458921
99276.038497417161125
99290.043417006454547
99300.365839311372838
99306.727614611343597
99309.261082714569056
99308.356072581387707
99304.645268800843041
99299.101984237015131
99292.870861349307233
99287.105099212931236
99282.478954378617345
99278.964960005891044
99275.800930718760355
99271.84786395910487
99265.983459472365212
99257.89170750635094
99248.458926499588415
99239.417386458677356
99232.894520902002114
99230.632855601346819
99233.261553966702195
99240.139487200969597
99249.697755519242492
99259.832110623188782
99268.68135466928652
99275.204367893878953
99279.218210867795278
99281.24947103211889
99281.949715914728586
99281.999139833118534
99282.390517779116635
99283.392681765879388
99285.502154997040634
99289.323905029974412
99295.234278838062892
99303.089651135655004
99311.881782688418753
99319.724154951458331
99324.239477666778839
99323.305162655640743
99315.998556202088366
99303.478289322913042
99288.740428659089957
99275.500725816542399
99267.290517145651393
99266.112072424250073
99271.95052998700703
99282.749888385355007
99295.359038203197997
99306.876839032047428
99315.780188097778591
99322.287911976134637
99327.949461686919676
99334.561518923772383
99343.085983367680456
99353.0469381208095
99362.605731796997134
99369.37615757882304
99371.640422076379764
99369.002232428174466
99362.794526693032822
99355.637628239201149
99350.467421351553639
99349.332773823887692
99352.648233607673319
99359.085433294661925
99366.037879057141254
99370.590476559853414
99370.401028924708953
99364.38284991614637
99352.918576310315984
99337.608335425029509
99320.640328981098719
99304.265400795469759
99290.346415577048901
99280.221104007941904
99274.662743628621683
99273.8694642669725
99277.442559531933512
99284.52193991074455
99293.973664182180073
99304.552165175191476
99315.050055459170835
99324.40203449652472
99331.802549676111084
99336.691058899203199
99338.928132524044486
99338.344910062805866
99335.17665525074699
99329.439307513646781
99321.044051139760995
99310.44247512613947
99298.168703905597795
99285.231347577850102
99272.785141986198141
99261.876006986465654
99253.310062735443353
99247.490666010198765
99244.379385877284221
99243.522578346193768
99244.182087713619694
99245.574276830491726
99247.123416763206478
99248.699236511150957
99250.756407277105609
99254.260740174286184
99260.427220926212613
99270.272135305465781
99284.076942397558014
99301.033742260406143
99319.205410450857016
99335.834788965599728
99347.983374478193582
99353.330368860173621
99350.859967594558839
99341.183372250117827
99326.347972851959639
99309.157822136156028
99292.411618079349864
99278.386863993931911
99268.540438128446112
99263.348522251195391
99262.403019126752042
99264.803787143144291
99269.548175293137319
99275.738853715360165
99282.674935177637963
99289.783686930488329
99296.504378931393148
99302.265054844872793
99306.474410994982463
99308.550347231386695
99308.062710347294342
99304.888462837625411
99299.196165991728776
99291.308031967739225
99281.627422257515718
99270.657165042110137
99258.928514805826126
99246.900024175192812
99234.930298246006714
99223.391775751471869
99212.795148412173148
99203.787263904814608
99197.053770521408296
99193.178771027334733
99192.422254868404707
99194.535170841045328
99198.718942772698938
99203.752593125231215
99208.313735896605067
99062.000457879330497
98973.238923548109597
99178.244923017089604
99428.702672931365669
99534.707005322910845
99447.682156225549988
99408.729427607075195
99409.455917940926156