/*--------------------------------*- C++ -*----------------------------------*\
  =========                 |
  \\      /  F ield         | OpenFOAM: The Open Source CFD Toolbox
   \\    /   O peration     | Website:  https://openfoam.org
    \\  /    A nd           | Version:  12
     \\/     M anipulation  |
\*---------------------------------------------------------------------------*/
FoamFile
{
    format      ascii;
    class       volScalarField;
    location    "0.0063";
    object      pPrime2Mean;
}
// * * * * * * * * * * * * * * * * * * * * * * * * * * * * * * * * * * * * * //

dimensions      [2 -2 -4 0 0 0 0];

internalField   nonuniform List<scalar> 
75962
(
930208.08321380615234
910569.54379272460938
901870.61812973022461
895890.40160179138184
891174.43257331848145
886888.37137031555176
882571.15351486206055
878265.39386367797852
874066.83461570739746
869963.71172142028809
865959.25715446472168
862052.24247741699219
858196.23973846435547
854326.88196563720703
850474.34397315979004
846748.43087005615234
843180.75789642333984
839736.0639705657959
836354.79661178588867
833019.50808143615723
829727.97402572631836
826466.49056434631348
823252.48025894165039
820118.75665283203125
817163.78204917907715
814456.57522773742676
811999.6071662902832
809794.69290351867676
807839.60023307800293
806079.84899711608887
804470.45262336730957
803013.85954284667969
801709.93179893493652
800516.67930603027344
799374.30813407897949
798241.6002082824707
797110.2943058013916
795984.62480735778809
794864.81679153442383
793739.00166130065918
792590.37954902648926
791402.92067337036133
790162.02097320556641
788851.6844596862793
787459.6693058013916
785976.1352367401123
784398.56096076965332
782722.26379203796387
780949.16804504394531
779073.23915481567383
777085.33838844299316
774990.06311225891113
772784.53398323059082
770460.51873588562012
768034.02895164489746
765530.150390625
762970.04104804992676
760368.71170043945312
757745.89389610290527
755134.94447135925293
752574.62445449829102
750092.68530082702637
747696.43413734436035
745376.59478187561035
743122.98062705993652
740935.0825252532959
738813.47908782958984
736748.13547515869141
734725.60774803161621
732733.6286506652832
730762.65584945678711
728798.50517463684082
726822.40047836303711
724821.58695030212402
722796.7488899230957
720752.41263198852539
718688.42259407043457
716603.25597763061523
714497.3663215637207
712366.55493927001953
710207.55354499816895
708027.50880813598633
705841.7032642364502
703661.64555549621582
701487.98746871948242
699319.23458671569824
697155.70724487304688
695001.38590431213379
692864.98827934265137
690760.66829681396484
688703.77289199829102
686700.47594261169434
684747.33999824523926
682837.28228759765625
680971.26342582702637
679159.68681907653809
677409.40231323242188
675713.44296646118164
674053.63756370544434
672410.07374572753906
670769.8617992401123
669131.66256713867188
667502.33370399475098
665886.51580238342285
664279.02304649353027
662669.76083946228027
661049.908447265625
659410.48668479919434
657742.69709396362305
656036.11552810668945
654281.83093070983887
652477.45841026306152
650626.83520126342773
648733.62962913513184
646797.25057601928711
644813.49952697753906
642780.36380767822266
640699.44601821899414
638570.46242332458496
636389.48696899414062
634150.22013282775879
631848.82534217834473
629491.14325904846191
627091.46800422668457
624661.72481727600098
622207.06106185913086
619731.79448509216309
617244.13875007629395
614756.27251243591309
612283.46146202087402
609840.32632446289062
607436.92211151123047
605078.34929656982422
602766.88764572143555
600505.47414016723633
598300.22421073913574
596157.17281913757324
594077.44932174682617
592058.62250518798828
590097.07538986206055
588189.02859497070312
586331.51560401916504
584521.7973461151123
582752.48750114440918
581011.73798751831055
579288.69077491760254
577578.56147766113281
575881.2684211730957
574194.6016960144043
572507.82964324951172
570801.59927558898926
569054.42298126220703
567252.15545272827148
565393.98092269897461
563490.52303123474121
561556.2404956817627
559603.67042541503906
557641.4874267578125
555675.54553413391113
553706.92888069152832
551726.26685905456543
549715.19170379638672
547659.31816673278809
545559.39960289001465
543428.54853248596191
541279.38641548156738
539116.22991943359375
536937.31961250305176
534744.71102142333984
532549.80587196350098
530367.40917587280273
528205.44585418701172
526063.80869102478027
523941.46769332885742
521839.9606819152832
519761.19605255126953
517706.68490028381348
515678.6279296875
513679.05897331237793
511709.64091682434082
509773.28737831115723
507875.48281097412109
506024.12580299377441
504226.39970779418945
502483.36696815490723
500786.41182899475098
499120.23726272583008
497470.86403846740723
436253.26617622375488
434837.6140079498291
433411.30705833435059
431977.33737373352051
430537.07327842712402
429090.95745277404785
427638.18856239318848
426175.6490306854248
424700.11593246459961
423211.81700134277344
421716.09818649291992
420220.35313606262207
418729.30249786376953
417242.88979530334473
415756.5539379119873
414261.90084457397461
412748.18718147277832
411206.17819213867188
409632.67853546142578
408032.11796760559082
406413.98314094543457
404787.96999549865723
403159.39620018005371
401527.35901832580566
399887.72432136535645
398239.10884666442871
396585.77143096923828
394934.50237655639648
393290.61734962463379
391657.38599395751953
390038.45848846435547
388438.36469268798828
386861.41740798950195
385312.03502082824707
383796.00219917297363
382319.5323429107666
380885.95229721069336
379492.89448738098145
378131.55072402954102
376789.12209892272949
375454.26437568664551
374122.41777229309082
372797.33240127563477
371487.80466461181641
370202.05274963378906
368943.31359100341797
367708.5721549987793
366490.67332077026367
365282.77189636230469
364082.46468353271484
362892.3231315612793
361716.98968124389648
360559.99588012695312
359422.12324142456055
358301.11108207702637
357191.50329971313477
356085.25885581970215
354974.51493263244629
353855.45767784118652
352730.02201271057129
351603.78125381469727
350481.58839988708496
349364.0395393371582
348246.88088989257812
347123.64805793762207
345989.48355865478516
344843.28805541992188
343686.94775009155273
342522.58250427246094
341350.87409400939941
340171.68183326721191
338984.55475997924805
337787.60739517211914
336576.52670478820801
335345.98601341247559
334093.22001266479492
332820.55922508239746
331534.25014305114746
330240.60330200195312
328943.25099754333496
327643.18247413635254
326339.62179374694824
325029.85638999938965
323709.03301620483398
322371.69128608703613
321014.46010589599609
319637.41056251525879
318243.16726875305176
316835.20029830932617
315416.42595863342285
313988.58149719238281
312552.43977355957031
311108.58017921447754
309658.02313041687012
308202.16139221191406
306742.2520637512207
305278.75140380859375
303811.5441780090332
302341.61248779296875
300873.246826171875
299414.31314086914062
297973.64910316467285
296557.85356140136719
295169.81417655944824
293808.8052864074707
292471.07945251464844
291151.33705520629883
289845.02250671386719
288549.86578750610352
287265.47836494445801
285992.1576099395752
284731.08619689941406
283485.48884582519531
282260.50626182556152
281060.66257667541504
279887.22188758850098
278737.94644927978516
277609.62311744689941
276501.53389739990234
275416.8051700592041
274360.0397834777832
273332.95613098144531
272332.05854606628418
271350.02850914001465
270379.11707305908203
269413.65080642700195
268450.37092971801758
267487.57573699951172
266524.4312801361084
265560.8348217010498
264597.46012687683105
263635.04061126708984
262672.8507194519043
261707.7311840057373
260734.49046897888184
259747.33725166320801
258740.87038230895996
257710.01950263977051
256649.58819961547852
255554.78089141845703
254423.02739143371582
253255.82473373413086
252059.58761405944824
250844.44953536987305
249620.99519538879395
248396.27385902404785
247171.53571891784668
245943.23076057434082
244705.92882537841797
243454.37900924682617
242183.94587516784668
240890.29740905761719
239570.02973365783691
238222.1581916809082
236849.05097961425781
235455.68316841125488
234047.60334587097168
232629.4122142791748
231204.68756103515625
229776.90712738037109
228350.3969669342041
226930.54180717468262
225523.05641555786133
224132.50327682495117
222760.87273216247559
221407.37529563903809
220069.76589393615723
218746.13258171081543
217435.70654678344727
216138.47447204589844
214854.57984352111816
213584.53628349304199
212329.94160652160645
211093.76079559326172
209879.86198043823242
208692.20012474060059
207533.91133499145508
206406.36970138549805
205308.9093189239502
204239.8464298248291
203198.23159599304199
202184.57966804504395
201199.56376647949219
200241.75988578796387
199306.43398666381836
198386.59052658081055
197475.72004127502441
196570.50495719909668
195671.75155448913574
194783.21323394775391
193909.09812164306641
193052.02186393737793
192212.55963134765625
191390.13017654418945
190584.17592620849609
189794.60002136230469
189021.44136238098145
188264.43103981018066
187522.87338638305664
186795.71711349487305
186081.61244010925293
185378.70148849487305
184684.73207473754883
183997.15263748168945
183313.25221061706543
182630.3300666809082
181945.9243221282959
181258.19185066223145
180565.96006965637207
179867.93388366699219
179161.46713447570801
178442.43679237365723
177706.92642021179199
176953.70316505432129
176185.21887588500977
175406.07685852050781
174620.25965118408203
173829.40273666381836
173033.15998268127441
172230.90400886535645
171423.18626976013184
170612.20164108276367
169801.48027992248535
168995.30093193054199
168198.0258617401123
167413.38161277770996
166643.8961067199707
165890.4342098236084
165151.87077713012695
164425.04304885864258
163705.49912071228027
162989.24485969543457
162274.80231666564941
161564.19435882568359
160861.95516014099121
160172.87249946594238
159500.1093864440918
158844.90487670898438
158207.62817764282227
157588.77316856384277
156989.00270080566406
156408.67814254760742
155847.97572326660156
155307.80071067810059
154790.58221626281738
154299.92865562438965
153839.48409080505371
153411.98479843139648
153019.19227981567383
152662.2821159362793
152341.95557403564453
152058.06204223632812
151809.23066711425781
151592.78972625732422
952129.89851951599121
924782.47734260559082
912516.11375045776367
903741.12891387939453
896972.18228530883789
891406.9345760345459
886495.64242362976074
881853.13747787475586
877297.34347724914551
872787.32709884643555
868276.26386070251465
863744.08049964904785
859256.76063346862793
854854.85896682739258
850553.51943206787109
846428.96677780151367
842550.51320457458496
838903.64949607849121
835493.27376937866211
832305.93933486938477
829277.3950080871582
826322.28179550170898
823381.57504844665527
820455.90594863891602
817612.86260986328125
814917.06274604797363
812388.44862174987793
810036.26814651489258
807884.18678283691406
805930.55747413635254
804186.36373519897461
802669.63566589355469
801357.92129135131836
800197.26607131958008
799121.8486213684082
798093.68233108520508
797081.50286102294922
796048.6094970703125
794971.36612129211426
793845.31450843811035
792653.47011756896973
791377.1389102935791
790006.06050300598145
788548.84709358215332
787010.81448554992676
785385.20090293884277
783669.84491348266602
781864.9839916229248
779969.57454299926758
777984.08045387268066
775908.42669677734375
773741.69669151306152
771490.17301750183105
769149.36624908447266
766722.67431449890137
764218.61825561523438
761650.90973663330078
759034.60513305664062
756391.9393253326416
753760.5258617401123
751187.45499610900879
748712.42126846313477
746353.17651748657227
744098.06414794921875
741927.60654258728027
739832.65943717956543
737813.36027717590332
735856.09687042236328
733938.26586151123047
732039.32456016540527
730147.40179824829102
728247.26411628723145
726324.17084884643555
724373.97981071472168
722405.66145133972168
720424.90940475463867
718427.40615463256836
716406.67604827880859
714360.71950912475586
712286.35479354858398
710177.53592300415039
708042.02082633972168
705898.25900077819824
703760.86233520507812
701625.53795433044434
699482.09423446655273
697332.23202896118164
695189.09206771850586
693069.29396438598633
690990.32961845397949
688965.84794616699219
686994.32008171081543
685061.87952995300293
683153.11541557312012
681263.87712669372559
679406.55512428283691
677598.06111907958984
675840.26761245727539
674119.08539581298828
672413.06172370910645
670703.21070671081543
668983.45600318908691
667262.08048629760742
665549.26901435852051
663849.23957824707031
662159.35822296142578
660473.4366340637207
658781.25943374633789
657070.18364906311035
655328.61324691772461
653546.98953819274902
651719.29733276367188
649846.28505516052246
647931.88397789001465
645980.06976890563965
643995.69996452331543
641984.71875381469727
639947.66768074035645
637874.21938323974609
635747.91387748718262
633555.51969528198242
631293.1822681427002
628967.48332023620605
626592.98018836975098
624183.0473690032959
621743.10832023620605
619274.98407745361328
616784.72211265563965
614283.83122062683105
611787.78447151184082
609314.23679542541504
606879.31207275390625
604493.34661293029785
602158.83406066894531
599874.93033218383789
597644.05077743530273
595471.59791374206543
593360.73050880432129
591310.2220630645752
589317.12870979309082
587379.93823051452637
585499.99103736877441
583677.89048767089844
581904.29025077819824
580159.50703811645508
578426.69008255004883
576702.22622680664062
574992.17929649353027
573300.20700263977051
571617.90573501586914
569925.79255294799805
568201.71628379821777
566430.40360260009766
564609.5817985534668
562747.16782188415527
560853.86515808105469
558940.09880256652832
557015.77160453796387
555089.11592102050781
553161.30062866210938
551221.4101390838623
549251.65835762023926
547240.68205070495605
545190.71437835693359
543113.19272613525391
541018.73228073120117
538909.77545738220215
536781.57849884033203
534630.21125030517578
532461.46428108215332
530289.8025016784668
528129.23791694641113
525988.64869689941406
523873.50726509094238
521786.11755180358887
519723.82112503051758
517682.61846923828125
515662.73617935180664
513668.28055381774902
511703.81556701660156
509773.88914108276367
507883.30544853210449
506036.1770076751709
504235.40478515625
502480.83685684204102
500766.12962532043457
499079.12895202636719
497408.00834083557129
495746.69381332397461
437673.44396781921387
436240.68144416809082
434796.07158279418945
433343.25526237487793
431883.86639976501465
430417.67307662963867
428944.71331787109375
427465.04812240600586
425976.53839302062988
424476.08849906921387
422964.32601737976074
421447.61841773986816
419934.56078720092773
418430.71915626525879
416936.04750823974609
415444.90074729919434
413946.97450065612793
412429.70906066894531
410882.76202774047852
409302.83338165283203
407694.97452735900879
406069.42043685913086
404436.62514877319336
402802.57914543151855
401167.07500839233398
399526.1541919708252
397877.42396545410156
396223.64883804321289
394570.97968673706055
392924.57127952575684
391287.48782920837402
389662.58685684204102
388053.27810287475586
386463.33776473999023
384898.39488410949707
383367.3554630279541
381879.72190284729004
380439.86551856994629
379043.27293968200684
377678.0398006439209
376329.91302108764648
374988.0031795501709
373649.08231544494629
372318.00509262084961
371003.76594161987305
369714.1820125579834
368451.82328796386719
367213.02630805969238
365989.91418266296387
364774.5806827545166
363562.93553161621094
362356.42446136474609
361161.36484909057617
359985.58663368225098
358834.25959014892578
357707.05303192138672
356598.14299201965332
355498.39803123474121
354399.10721015930176
353294.8138427734375
352183.69995307922363
351067.08495712280273
349947.43166351318359
348826.07240867614746
347701.46895980834961
346569.49067115783691
345425.89159393310547
344269.05485725402832
343100.81350135803223
341924.46621322631836
340742.42125129699707
339555.58646392822266
338364.0490837097168
337166.60313415527344
335959.18645668029785
334735.67389488220215
333491.97934532165527
332229.49976539611816
330953.76043128967285
329670.02651023864746
328380.77127456665039
327086.52626800537109
325786.82242393493652
324479.17838859558105
323158.48806571960449
321819.11536026000977
320458.12956428527832
319076.64263916015625
317678.44158554077148
316267.89663696289062
314848.4017391204834
313421.63398361206055
311987.32155990600586
310544.37069320678711
309093.02306365966797
307636.20517158508301
306178.32065010070801
304722.33731269836426
303268.30361366271973
301815.17454528808594
300364.32136154174805
298921.11433601379395
297493.26037406921387
296087.66925239562988
294708.19219017028809
293354.82673072814941
292024.41385650634766
290712.82459449768066
289417.65144729614258
288138.93736267089844
286877.20377540588379
285631.64315223693848
284400.84498977661133
283185.30058479309082
281988.40394973754883
280814.50354766845703
279665.87929344177246
278541.50034141540527
277438.75416946411133
276356.80809211730957
275298.23375511169434
274266.97530746459961
273264.24925804138184
272286.2774486541748
271325.78976631164551
270375.22311973571777
269428.75742149353027
268482.28521156311035
267532.70755577087402
266578.10884857177734
265618.56635284423828
264656.27201843261719
263693.99013519287109
262732.88032722473145
261770.86468124389648
260802.87714958190918
259822.27467918395996
258822.37257766723633
257797.00240898132324
256740.61273956298828
255648.77555465698242
254519.33855628967285
253353.96676826477051
252158.83347511291504
250943.51797294616699
249717.80810546875
248488.00681304931641
247255.39161682128906
246017.62156295776367
244771.22943687438965
243512.85273742675781
242238.68223571777344
240944.0327320098877
239624.58455467224121
238278.62435913085938
236908.18095016479492
235517.95244598388672
234112.96599960327148
232697.13897895812988
231273.46152877807617
229844.94110298156738
228415.43652153015137
226989.87614440917969
225573.66171264648438
224171.41816902160645
222785.88445854187012
221417.67322731018066
220066.05486106872559
218729.85809898376465
217407.88273811340332
216098.92343521118164
214802.1357307434082
213517.9201774597168
212248.55091667175293
210997.89191055297852
209770.37798690795898
208570.0120964050293
207399.6524486541748
206260.41814613342285
205151.5566349029541
204071.38855743408203
203018.82572937011719
201994.13091850280762
200998.04763221740723
200029.71163558959961
199085.18328666687012
198157.88274765014648
197240.93700981140137
196330.0765323638916
195425.27708435058594
194530.15123748779297
193649.54349136352539
192787.09084892272949
191944.09668350219727
191120.22034072875977
190314.87130546569824
189528.01460456848145
188760.08798789978027
188011.20347023010254
187280.60494804382324
186566.70878791809082
185867.53353309631348
185181.13652992248535
184505.74655342102051
183839.48642158508301
183179.85355949401855
182523.34187126159668
181865.84232711791992
181203.80283164978027
180535.03656387329102
179858.25774765014648
179171.65297698974609
178472.07650375366211
177756.14271354675293
177022.49356269836426
176273.10149002075195
175512.18446350097656
174743.50541687011719
173968.54703521728516
173186.8066349029541
172397.49093246459961
171601.15425109863281
170799.98788070678711
169997.04496574401855
169195.51056098937988
168398.7275562286377
167610.69808387756348
166836.06046867370605
166078.85697555541992
165340.28479385375977
164617.26098442077637
163903.43445587158203
163192.43113136291504
162481.1479663848877
161771.09225654602051
161067.08707809448242
160374.67960929870605
159698.22450637817383
159040.5139102935791
158403.32963180541992
157787.75372886657715
157193.78829002380371
156619.94141578674316
156063.90685272216797
155524.40730476379395
155002.83457183837891
154503.34729194641113
154031.26340675354004
153591.22085952758789
153186.42841720581055
152818.99820327758789
152490.35121917724609
152201.03989791870117
151949.96601104736328
151733.73457145690918
923641.39590454101562
908732.17072296142578
901787.50333404541016
895616.99055480957031
890179.0594654083252
885452.92254829406738
881346.09523963928223
877580.59991264343262
873927.12008285522461
870214.6600170135498
866302.62630653381348
862181.86347579956055
857933.22701644897461
853634.30270576477051
849315.27741813659668
845080.15738105773926
841076.92024993896484
837350.38854026794434
833910.31786155700684
830748.01633453369141
827807.37815093994141
825007.38439559936523
822292.05852508544922
819666.77578353881836
817115.63124847412109
814647.11472129821777
812275.30252265930176
810002.45966339111328
807840.11196327209473
805817.34634399414062
803987.26473236083984
802381.70891380310059
800987.34345817565918
799749.15113067626953
798619.58096122741699
797577.63207626342773
796599.32481956481934
795633.73122978210449
794631.8201961517334
793566.34415817260742
792416.34656143188477
791159.22114753723145
789782.95750999450684
788298.36461639404297
786715.26360702514648
785019.93545722961426
783207.44038581848145
781297.03161811828613
779300.48191070556641
777214.79330253601074
775040.61223411560059
772779.37177276611328
770443.36288452148438
768044.74010848999023
765587.6348819732666
763069.50004577636719
760488.89370346069336
757856.27743339538574
755195.08634567260742
752547.96791458129883
749962.63003730773926
747478.74394989013672
745114.85187339782715
742865.35206413269043
740710.64744567871094
738637.65923500061035
736646.96510887145996
734730.01282119750977
732860.23869895935059
731006.80624580383301
729150.78589057922363
727285.04737281799316
725410.94234275817871
723530.89712715148926
721649.80768775939941
719768.44112396240234
717876.77913856506348
715965.74186325073242
714027.3477783203125
712052.46415710449219
710032.37424659729004
707971.49013710021973
705890.37709426879883
703801.39983749389648
701696.93421745300293
699564.86017036437988
697409.804931640625
695255.01058197021484
693127.30631637573242
691044.89691734313965
689016.0624828338623
687035.99002838134766
685086.00852966308594
683145.92423248291016
681208.57138633728027
679290.78098297119141
677416.21466827392578
675591.06972503662109
673801.96948432922363
672025.76836585998535
670242.16811943054199
668444.57647132873535
666643.18552398681641
664854.10627746582031
663085.77615928649902
661336.17357635498047
659596.58652877807617
657857.7238597869873
656110.73223876953125
654346.08247947692871
652551.44292640686035
650716.32739067077637
648839.25118827819824
646924.65310287475586
644981.22976684570312
643022.24174499511719
641058.52724075317383
639086.28452682495117
637085.61388206481934
635029.92282676696777
632902.0346565246582
630698.19941711425781
628425.10981941223145
626094.99315643310547
623720.86774253845215
621310.23942565917969
618865.67586326599121
616390.75886726379395
613894.86032676696777
611393.68454742431641
608907.76630401611328
606458.15781593322754
604058.81743621826172
601712.42825698852539
599415.01039695739746
597164.94635963439941
594965.59567832946777
592820.88728713989258
590732.78182601928711
588702.0229377746582
586730.01588439941406
584820.23245048522949
582973.99898529052734
581180.36052513122559
579415.18623924255371
577657.64241409301758
575904.57270050048828
574166.6778392791748
572452.36608695983887
570755.97477149963379
569058.92688179016113
567339.091796875
565581.68937110900879
563783.96842002868652
561951.14162063598633
560091.25730895996094
558213.63582801818848
556327.8453426361084
554440.54364013671875
552551.09235572814941
550649.99283027648926
548724.96194839477539
546770.71501922607422
544790.97534942626953
542793.27939987182617
540782.64201927185059
538758.05791091918945
536712.09933280944824
534636.69404411315918
532532.51966094970703
530412.52538108825684
528294.5059700012207
526193.12545204162598
524116.67745208740234
522065.14274787902832
520031.22473526000977
518008.10748863220215
515997.13187026977539
514006.72742462158203
512046.27583694458008
510122.41504096984863
508237.5172290802002
506388.99678230285645
504572.47945976257324
502785.87415504455566
501027.71410179138184
499293.49320983886719
497576.83879661560059
495874.09030532836914
437732.69461250305176
436266.72510528564453
434792.41190147399902
433311.58549690246582
431823.05015563964844
430325.21732902526855
428819.43541526794434
427308.21547698974609
425791.26248550415039
424266.16138076782227
422733.04895401000977
421196.71644020080566
419663.94051551818848
418139.81654357910156
416625.15164566040039
415115.06385040283203
413599.3892879486084
412065.76708984375
410504.32616806030273
408911.90608024597168
407293.25100135803223
405658.50520324707031
404018.67709732055664
402381.1387882232666
400747.04878044128418
399112.51310539245605
397473.79591369628906
395831.7634162902832
394190.87310600280762
392554.9384880065918
390925.87753295898438
389305.75605773925781
387697.80844497680664
386106.22975158691406
384537.61960983276367
383002.13295555114746
381509.91244888305664
380064.31766128540039
378658.68281936645508
377279.69466018676758
375914.37005996704102
374555.47782707214355
373202.97685623168945
371862.39327812194824
370541.45107269287109
369246.03940391540527
367976.96000099182129
366729.48811149597168
365495.72053718566895
364268.17708206176758
363042.47177696228027
361819.18386268615723
360604.83333015441895
359409.82609748840332
358242.58234405517578
357104.37384986877441
355989.2213306427002
354888.86064529418945
353795.59258460998535
352702.17654609680176
351602.68410491943359
350494.24933052062988
349377.73761367797852
348255.64239883422852
347128.57987976074219
345993.74434661865234
344846.78774261474609
343685.24568557739258
342510.35512542724609
341325.91187858581543
340135.64547729492188
338942.03157997131348
337746.48505592346191
336548.61045265197754
335344.60379028320312
334128.11654472351074
332894.53532791137695
331644.45880699157715
330382.08114242553711
329110.73100090026855
327831.06413841247559
326542.81631278991699
325246.0889892578125
323939.8212833404541
322620.10497093200684
321281.94782257080078
319922.79980659484863
318544.08606338500977
317149.78523254394531
315744.17108345031738
314330.39538383483887
312909.70317649841309
311481.13906669616699
310042.82281684875488
308594.85837936401367
307141.41609191894531
305689.37224960327148
304244.24145698547363
302807.2258186340332
301376.26991653442383
299949.91573143005371
298530.15803527832031
297122.1650333404541
295731.87935638427734
294363.404052734375
293017.51571464538574
291692.39446258544922
290386.23366355895996
289099.5068416595459
287834.38026237487793
286592.02301406860352
285370.88552474975586
284168.21677589416504
282983.15666961669922
281817.95326995849609
280676.32625389099121
279560.4665412902832
278469.48697280883789
277400.69453430175781
276352.59387016296387
275326.50429725646973
274324.74201202392578
273347.28920936584473
272390.40428924560547
271447.97173881530762
270513.6851921081543
269581.78784370422363
268646.63796424865723
267703.08980941772461
266748.25296401977539
265783.10541915893555
264812.0342903137207
263840.36704635620117
262871.29919624328613
261904.15070533752441
260934.18579864501953
259953.96860122680664
258955.41519737243652
257931.32247161865234
256875.97493934631348
255785.39129829406738
254658.08011436462402
253496.12774848937988
252305.65288352966309
251095.32027435302734
249873.2275505065918
248644.06756019592285
247408.48671722412109
246164.77291679382324
244910.97245407104492
243645.30169868469238
242365.05284881591797
241066.24743843078613
239745.19618225097656
238400.91750717163086
237036.01676559448242
235654.99004745483398
234261.69367790222168
232858.35500335693359
231446.38700103759766
230027.74250602722168
228605.61102294921875
227184.35480690002441
225768.92020988464355
224363.85001564025879
222972.26132774353027
221595.55598831176758
220233.69001388549805
218885.80007171630859
217550.61562156677246
216226.91493988037109
214914.21909141540527
213613.57185935974121
212327.82718467712402
211061.17986106872559
209818.11330986022949
208602.39288330078125
207416.35163688659668
206260.63166236877441
205134.53092384338379
204036.82969665527344
202966.71852111816406
201924.29966163635254
200910.07846260070801
199923.71862983703613
198962.68329811096191
198021.92929267883301
197095.26398086547852
196177.90193367004395
195268.63053703308105
194370.06374168395996
193486.80508804321289
192622.74209022521973
191779.48083305358887
190956.56127548217773
190153.18634414672852
189369.4852123260498
188606.18384742736816
187863.53086090087891
187140.38408279418945
186434.46875
185743.3516731262207
185065.36238288879395
184399.75216674804688
183745.86989593505859
183101.981201171875
182464.56200790405273
181828.84865951538086
181190.33123397827148
180545.97344589233398
179893.88374900817871
179231.86418533325195
178556.53349494934082
177864.36008453369141
177153.84116172790527
176426.68597793579102
175686.76189422607422
174937.54822540283203
174180.28278350830078
173414.12356567382812
172638.03763771057129
171852.68100547790527
171060.78084945678711
170265.84489059448242
169470.71510696411133
168677.62877655029297
167889.80514717102051
167112.62723922729492
166352.44783210754395
165613.13220596313477
164893.0982723236084
164185.69743919372559
163482.96937942504883
162780.05777740478516
162077.1523265838623
161378.30356407165527
160688.74168014526367
160012.88405227661133
159353.9605884552002
158714.56318473815918
158096.92160606384277
157502.22443389892578
156929.81453514099121
156377.46420860290527
155842.99432945251465
155326.2276668548584
154829.74869346618652
154357.83939933776855
153914.60596466064453
153502.82315635681152
153124.23480415344238
152780.55758476257324
152473.83162117004395
152205.43078804016113
151974.42135429382324
151776.63124847412109
941436.9409008026123
918057.07557106018066
907094.88674163818359
898328.66121864318848
890882.89082336425781
884595.47960090637207
879343.90019989013672
874792.87809753417969
870753.43691825866699