/*--------------------------------*- C++ -*----------------------------------*\
  =========                 |
  \\      /  F ield         | OpenFOAM: The Open Source CFD Toolbox
   \\    /   O peration     | Website:  https://openfoam.org
    \\  /    A nd           | Version:  12
     \\/     M anipulation  |
\*---------------------------------------------------------------------------*/
FoamFile
{
    format      ascii;
    class       volScalarField;
    location    "0.0063";
    object      rho_0;
}
// * * * * * * * * * * * * * * * * * * * * * * * * * * * * * * * * * * * * * //

dimensions      [1 -3 0 0 0 0 0];

internalField   nonuniform List<scalar> 
75962
(
1.1520365108853298786
1.1531677463934013605
1.1514691493931084043
1.1497472864252717972
1.1504273478095083938
1.1525719251784880548
1.1542669836108871984
1.1540599224328995653
1.1530948368656446235
1.151918501161183217
1.1504472762069517522
1.1498156230241687314
1.1502540214407215302
1.1509881858534349863
1.1513638044425575924
1.1510210386898398482
1.1505529320952021521
1.1504647336071949226
1.1501443971630711527
1.1493677818325254147
1.1488162256547380657
1.1492418848838905632
1.150376443861354403
1.1510829333678100905
1.1508391499133265867
1.1502042001693724149
1.1496948881100159667
1.1493593367240733105
1.1493204643025825007
1.1495885539273764664
1.1497317397719695187
1.1494062566452378782
1.1487775005951301743
1.1481495151599474536
1.1475488821079788959
1.1469349036973446321
1.1463284872880505905
1.1458947049606651447
1.1457446376441846603
1.1459603538940044132
1.1464822800507747935
1.1469173243882790914
1.1469748973586122442
1.146606774470770862
1.1459687532530939968
1.1452898694812183589
1.1447909834190659328
1.1446434466373220928
1.1448453315847650913
1.1451177152778753143
1.1451108748909000212
1.144702016616649054
1.1440628425115866307
1.1434538881176246061
1.1430701036565504847
1.1430411073563437885
1.1434135800006057782
1.1439633052618876086
1.1443451202951906431
1.1443783096053039561
1.1441830393657015374
1.1440245796976764581
1.1440447503897646087
1.1441600741179664968
1.1441713544710001571
1.1439977349895678049
1.1437676292531917532
1.1436507819280334886
1.1436151252261017586
1.1434831487731236255
1.1432140867791455996
1.1429919119391400706
1.1430241267959679874
1.1433499064015177904
1.1438546819107897612
1.1443464076913032468
1.1446084764167410164
1.1444908716924862002
1.1440872010934555192
1.1437062684584842209
1.1436093117492558413
1.1438457155766608153
1.1443137924714394948
1.1448459530209549317
1.1452409817801085801
1.1453461057288008007
1.1451344727566259429
1.1447588562261648004
1.1444494679704644291
1.1443157631625415771
1.1443114654175778888
1.1443677881870093493
1.1444735778865302578
1.1446354859510827762
1.1448335600707328918
1.1450312462606149211
1.1452074303509394149
1.1453559728693143427
1.145464807818274755
1.1455083874175229219
1.1454808171057517807
1.1453960373626979052
1.1452831405596293202
1.1451895579901421041
1.1451569944363355624
1.1451850583224509883
1.1452063522085862424
1.1451313000042500079
1.1449413323942092546
1.1447096007647670213
1.1445532013668680005
1.1445342789887302803
1.1446280413748011195
1.1447722444743066994
1.1449529638343121096
1.1452051388902719786
1.1455148277118734068
1.1457605425948114153
1.1457673559281678077
1.1454420637121913717
1.1448412841128969841
1.1441221522168394387
1.1434639443422958127
1.1430069998064706915
1.1428134253075428184
1.1428857170538404553
1.1431688414284939537
1.143603553195206679
1.1441313840566424975
1.1447084879002957791
1.1452889437064948108
1.1457922748693736281
1.1461101350608609017
1.1461267273212549789
1.145778636047916299
1.1451241806200287421
1.1443517400876044299
1.1437156058873090281
1.1433987462331398621
1.1434295934364233638
1.1436890874925127459
1.1440147432172473874
1.1442895043142609079
1.1444704441104465165
1.1445529210203011505
1.1445245088397719702
1.144353766046519727
1.1440122050543810595
1.1435311132559247138
1.1430138418630348962
1.1425958102104463165
1.1423697418767617684
1.1423426663081857058
1.1424542137990942869
1.1426399241158813336
1.1428715165213993998
1.1431684805968769236
1.1435674144155183463
1.1441010709694283687
1.1447805982400895974
1.1456033749886800344
1.1465459062124938594
1.147559586562617584
1.1485674990762408942
1.149479919752082635
1.1502288404329810145
1.1507845443539668207
1.1511620080438873526
1.1514001055961931019
1.1515426121963505679
1.1516187477890877933
1.1516503977970855566
1.1516646178732725669
1.1516849851502866109
1.1517197979288158471
1.1517658929091105779
1.1518091636464471428
1.1518358398087944483
1.1518331527081002719
1.1517922979445456289
1.1517118355516537953
1.1515999274338608593
1.1514776814428187013
1.1513789623428412057
1.1513399772574453017
1.151389450925204061
1.1515296847894882504
1.1517342441834876876
1.1543183458659858065
1.1543378595162006039
1.1542723981727622817
1.1541437520977435582
1.1539912166783814484
1.153853549405605694
1.1537468290959824735
1.1536610389743546801
1.1535632263501343076
1.1534206338755577104
1.1532158382809500896
1.1529620962976985243
1.1526977037194434672
1.1524684864560890141
1.1523099743289371144
1.1522368581408144461
1.1522407960301537244
1.1522955375387833321
1.1523646163801770648
1.1524105255687695504
1.1524034168833470204
1.1523328755363249076
1.152215781375405701
1.1520916025586103171
1.1520033653957908459
1.1519745666294478603
1.1519965316305471603
1.1520349206997722025
1.1520492720782395946
1.1520169438825929031
1.1519463371364617732
1.1518677935132912715
1.1518147378463987618
1.1518053496288409576
1.1518414428626206902
1.1519177803573097396
1.1520262046916736054
1.1521555891001946659
1.152290758134695281
1.1524090559777286913
1.1524820768478825084
1.1524835376615349958
1.1524063326051845468
1.1522731456036081621
1.1521306634249568468
1.1520313908332082686
1.1520107902131917488
1.1520736815096770389
1.1521910305654305962
1.1523141609389686568
1.1524014087161202902
1.1524342902190034543
1.152421315983256811
1.1523909100730416188
1.1523744740732173586
1.152391258608589153
1.1524395646818765826
1.1524956985529912767
1.1525273282181505152
1.1525141073100853006
1.152451637836745757
1.1523520078835935987
1.1522371041504297917
1.152128314708691148
1.1520373057281447782
1.1519629198132779191
1.151896117818653531
1.15182929805062928
1.1517643196541418327
1.1517152316194205763
1.1517046291269941172
1.1517546891060532754
1.1518757595332902444
1.1520579628202791689
1.1522703681425441324
1.15246871963460773
1.1526086586284451929
1.1526589025628490859
1.1526095900905546365
1.1524724930835816838
1.1522745343772149429
1.1520490364028670438
1.1518282110840452059
1.151638751996297616
1.1514999081457384378
1.1514222983466033678
1.1514085075906601574
1.1514538004545862293
1.1515468819492333807
1.1516709491848051705
1.1518064520543247475
1.1519358554297174368
1.1520476939880146539
1.1521380205164946098
1.1522093073561605614
1.1522675595003040172
1.1523188430720208153
1.1523670863404593678
1.1524127827321282158
1.1524542118412832714
1.1524896095641556926
1.1525201882881546123
1.1525524045137529594
1.1525965909882620597
1.1526627693885518333
1.1527544696024023541
1.1528654067315258214
1.1529794535880941719
1.1530752878370724712
1.1531343386943315732
1.1531487846357202365
1.153124096016844069
1.1530760656663039398
1.1530222380722092712
1.1529744314635195224
1.152932249838807488
1.1528842343480367738
1.1528136090873104536
1.1527089063161917171
1.1525710104687563184
1.1524158476659294159
1.1522706453547719718
1.1521636822326362104
1.1521139214732682987
1.1521237121999523545
1.1521774181215853616
1.1522476751733790046
1.1523065780047341278
1.1523363417654368668
1.1523340961676931116
1.1523121807189689036
1.1522908084349066105
1.1522895703609445928
1.1523191956242062606
1.1523781955384153619
1.1524562211189404159
1.1525397778151937889
1.1526200671632278461
1.1526949235425660856
1.1527661321665638727
1.1528357972547935706
1.1528997886284795271
1.1529475299008544731
1.1529657071636205679
1.1529447032621116254
1.1528846214872310316
1.1527983420565621753
1.1527082178789365141
1.1526392645121623648
1.1526111075066245437
1.1526303013697312139
1.1526891001826948813
1.1527696941898000205
1.1528520563211146488
1.1529216917696714084
1.1529749045124106921
1.1530169067079172329
1.1530576491980519815
1.1531050481292932641
1.1531599990290291036
1.1532145296711391325
1.153255045827305425
1.1532676389853946386
1.1532457164146314721
1.1531937101830631587
1.1531259444859016661
1.153061419985441427
1.1530164319237143911
1.1529988203103413991
1.1530051633339615247
1.1530230510391310528
1.1530362593937475424
1.1530304173135121903
1.1529979776252894386
1.1529397532515186509
1.1528627931693378184
1.1527772134853497832
1.1526935311384052252
1.1526213712413357904
1.1525687671631452691
1.1525428183020929307
1.152548813386582216
1.1525897261709729946
1.152665474890968822
1.1527710309233847319
1.1528954658123522492
1.1530226699015162506
1.1531350859172282419
1.1532179715996446756
1.1532624090155119134
1.153266166594832276
1.1532330154453598325
1.153170293257994139
1.1530862008337325886
1.1529885826856829389
1.1528837570325585205
1.1527789170590367895
1.1526802369113982039
1.1525952437877744483
1.152529391540286996
1.1524898823181166652
1.1524803699660255418
1.1524981201310668943
1.1525380074881816928
1.1525916314295874265
1.1526493995126914083
1.1527041376584257204
1.1527540925897095114
1.1528034246453600087
1.152860494234009936
1.1529343950170396482
1.1530309767186077696
1.1531497074764418542
1.1532819956834892139
1.1534117730029844751
1.1535191093886971725
1.1535855085495507755
1.1535989603850915763
1.1535573822383533571
1.1534688569934758995
1.1533486418090270753
1.1532151452955239357
1.15308660396521101
1.152978352111337923
1.1529004836304925785
1.1528572569236394951
1.152847994875527915
1.1528681581119180066
1.1529112166204626977
1.1529702551887370809
1.1530386972719048888
1.1531105921686755078
1.1531804055475718407
1.153242511214382704
1.1532911810927097829
1.153321483067740516
1.153330145622072811
1.1533159870580944606
1.1532802249556934893
1.1532267137697254089
1.1531609788011873974
1.153088506363470378
1.1530132881297965319
1.1529371136277755117
1.1528601798288711233
1.152782197982259893
1.1527026138646012665
1.1526217660261348641
1.1525416773816161697
1.152464847148345406
1.1523929931063485732
1.1523259247457118271
1.1522618802145090378
1.1521986518483493533
1.1531619938400619052
1.1536325715110993251
1.1513225072043133945
1.1514418186305763747
1.152514561882911126
1.1524038913034222453
1.1525078459779380946
1.1529284396543326707
1.1530376011956116056
1.1523054773987062571
1.1515343146625272031
1.1509103584164745993
1.1506268898492106878
1.1510009671681038501
1.1516021129632370013
1.1517406532239371497
1.151551364620980733
1.1513721240832526238
1.1507166524054677215
1.149690736024803206
1.1492288149307103851
1.1498769858993862503
1.1510572784094323939
1.1515727402955213687
1.1511090672153250214
1.1502957106917208741
1.1496207880382467437
1.149236963573228909
1.1492428436289070515
1.1494225123074270911
1.1493563788723419883
1.1489560646701892921
1.1485037284726560269
1.1481315187654557164
1.1476320331559446419
1.1469840435038274329
1.1464687129477564298
1.1462638301444914024
1.1462451660401908882
1.1464165181126593218
1.1468690484343955216
1.1473882007491933432
1.1475264669772222703
1.1470936964347446807
1.1464235632024968314
1.1458554934525004843
1.1455155889897417065
1.1454465847514281318
1.1456092675913827073
1.145775160797267711
1.1456630088548729329
1.1452084053561606414
1.144527976471680919
1.1438027830598314072
1.1432410746801955348
1.1430840343508295032
1.1434021384450978598
1.1439678221013143133
1.1444237448246412647
1.144570366010273732
1.1444448604612211806
1.1442118865743917677
1.144086269786010801
1.1441291341436061746
1.1441726532555953622
1.1440338766112974067
1.1438035824805694585
1.1437140082058934176
1.143823880427577544
1.1439392831043881937
1.1438677746152585701
1.1436590466223184315
1.1435484191766429607
1.1437177862932363936
1.1441855443199548947
1.1447705016565847824
1.1451393692412581427
1.1450502435869251983
1.144561646654435938
1.1440421870721186881
1.1437965804664393943
1.1439752518409360693
1.1444964017435366177
1.1451512476830982834
1.1457170105962537487
1.1459701171237983708
1.1458233983996140015
1.1454266818589007304
1.1450158074173697464
1.1447257926094953628
1.1445749886073293133
1.1445762868111910571
1.1447553105132464157
1.1450536555068544509
1.145353518148248817
1.1455293458293849262
1.145585208656965559
1.1455948347501867524
1.1456106217223640531
1.1456496244628149306
1.1456827732290524313
1.1456742077072759045
1.1456014036019841473
1.1454829375319885987
1.1453653995304067248
1.1452755452410903203
1.1452022941204116346
1.1451091296533377761
1.1449842251969657436
1.1448666172471615443
1.1448220249005340854
1.1448719688732449384
1.1449667539624190926
1.1450268707008461888
1.1450391898426430792
1.145064191457062508
1.1451542944150157055
1.1452734381962437205
1.1453040826928493345
1.1451226802325509269
1.1447096671579650717
1.1441588456386260209
1.1436245713512416255
1.143238548056898729
1.1430627375333759499
1.1430867872746246494
1.1432713690707045906
1.1435779619365893378
1.1439939082187544628
1.1444909054001932702
1.1450110422108212838
1.1454624420410410846
1.1457284146428896587
1.1457123777916193852
1.1453712987567954418
1.1447774741981413538
1.1441110385180635056
1.1435899810132255094
1.1433584769594875574
1.1434119077510154217
1.143626401882646082
1.1438628612681498442
1.1440401700387561323
1.1441649393852542094
1.1442570567947583093
1.1442992877311610744
1.1442156579934101845
1.1439328493908189621
1.1434584489160344312
1.1429029948840070396
1.1424248434483159631
1.1421370674143400681
1.1420534372804380663
1.1421140160545935061
1.1422585682993700029
1.1424658289231812702
1.1427632700429082302
1.1431930228386615322
1.1437823006360825495
1.1445371891277904552
1.1454318798758460485
1.14641476088715355
1.147417940552080573
1.1483718230891761802
1.1492175209176114237
1.1499207315689066178
1.1504774068004599563
1.1508991488854640739
1.1512087608530858773
1.151423474200707453
1.1515537981717582916
1.1516056026700542958
1.1515978245991393969
1.1515606094736658971
1.1515182862330093361
1.1514898740882943962
1.1514833242943347535
1.1514939989862484904
1.1515028176660073722
1.1514868574295271664
1.1514267238369635393
1.1513224217904809432
1.1511970900806833829
1.1510937839139057104
1.1510645674438724217
1.1511485841063009428
1.1513511374855585068
1.1516321941866876077
1.151916657438343039
1.1541183220276056698
1.1542054144791353831
1.1542046611922214261
1.154118632449682158
1.1539801199935468823
1.1538362738714327271
1.1537237639386839216
1.1536502568755930831
1.1535908992128864892
1.1535018109524557417
1.1533448295366552916
1.1531075796855208004
1.1528141449521023265
1.1525141514218817385
1.1522611380667620029
1.152092077965958028
1.1520183996225108469
1.1520275986158881043
1.1520912976513322246
1.152174505356138523
1.1522426310157871665
1.1522685064294182489
1.1522386508730166899
1.1521625691814199044
1.1520685417526976835
1.1519894285965199821
1.1519452343644465131
1.1519319852668534754
1.1519267026800050768
1.1519050701474846665
1.1518614138062803764
1.1518120570558358917
1.1517811170708081026
1.1517848072694316652
1.1518245303438712224
1.1518908303506800728
1.1519697523141350093
1.1520531256840005341
1.1521417082459313175
1.1522363691436170452
1.1523267660276226287
1.1523887188766355205
1.1523965962014055542
1.1523363585705754808
1.1522204982147805641
1.1520878110592596144
1.1519887759691325169
1.1519624385083169216
1.1520208201601851439
1.1521452151518973839
1.1522977739636228733
1.1524360540002998032
1.1525296957396446995
1.1525694544035489653
1.1525656102098704725
1.1525373725091609955
1.152500956269063126
1.1524645579008463425
1.1524187519721713624
1.1523619876992501343
1.1522887345994230479
1.1521987504969617433
1.1521005386082527888
1.1520072533457268449
1.1519304163758159465
1.1518746368969337013
1.1518355465351355349
1.1518028170350849138
1.151767307607137969
1.1517280879838402985
1.1516952502552131321
1.1516880648924485708
1.1517268737886068308
1.1518226718276032283
1.1519683710798993559
1.1521368319295488547
1.1522881290889124273
1.1523838715167076252
1.1524004473067430698
1.1523352426954511785
1.1522043786092068807
1.1520351882138559763
1.1518560555248849031
1.15168897504221035
1.151547346650604764
1.1514392936948152357
1.15137131705599427
1.1513493147906033176
1.1513767421192262486
1.151451208201720533
1.1515624506579520414
1.1516928875396859056
1.1518215334613253198
1.1519304189610688471
1.152009101438470573
1.1520569181415050153
1.1520813258507689447
1.1520954287017819428
1.152113478365533572
1.1521458607957746345
1.1521972124268160531
1.1522660845167420618
1.1523480159123629107
1.1524387669657398803
1.1525360520690290933
1.1526385319321810208
1.1527441175442170174
1.15284720183675371
1.1529377819324317933
1.1530036412371496013
1.1530355958395299698
1.1530314251725934938
1.1529969665329422579
1.1529454049362859447
1.1528912887005580146
1.1528440535638098119
1.152803699660166048
1.152760946517921381
1.1527018647258013839
1.1526158810465425564
1.1525031593281538367
1.1523764551108832688
1.1522580070759078641
1.1521720404276472038
1.152135108440115463
1.152150370223736342
1.1522071514720366725
1.1522847780873473056
1.1523603737720873319
1.1524171933148799063
1.1524495280853201962
1.1524621020457004317
1.1524663550850100524
1.1524753089157289132
1.1524965674160505547
1.1525311259988113566
1.1525756946276790593
1.152626415048367603
1.1526825476644031454
1.1527455247760849399
1.1528168157928948556
1.1528927352497146952
1.152962217937988143
1.153008563406484166
1.1530152547427090504
1.1529729936156325465
1.1528860811879215742
1.1527734378760172707
1.1526637083134645412
1.152586465855016451
1.1525619191162299604
1.1525935555329094306
1.1526689904315718938
1.1527648631270754898
1.1528577968275266485
1.1529335432222442837
1.1529907759213464669
1.1530388887751772398
1.1530909608728314719
1.1531556448171726981
1.1532314602800013414
1.1533063235111942202
1.1533623716014982374
1.1533833978755008154
1.1533632060907903494
1.1533090547542597104
1.1532399596700482203
1.1531789427033520834
1.1531438599404681966
1.1531419240076090649
1.153166399596949443
1.1532007686133614044
1.1532240959781654421
1.1532192583853231316
1.1531775288586396666
1.1531009438077668428
1.152999562172947412
1.1528875404315344078
1.1527793909772789949
1.1526876863442252485
1.1526221313824287495
1.1525894817118216285
1.1525930288732799678
1.1526324462556976069
1.1527036684746543305
1.1527992152868167253
1.1529083356668863303
1.1530183325682223927
1.1531159030092386075
1.1531903950741302367
1.1532356339017810765
1.1532495600191765561
1.1532334752619812779
1.1531908617988435584
1.1531245243372942877
1.1530383425197034963
1.1529360656895590864
1.1528241291976506488
1.1527107573166250898
1.1526046082641681068
1.152515303357196208
1.1524515611802439441
1.1524174022766402459
1.1524122399680309936
1.1524312284200839418
1.1524661421796027483
1.1525075136644356011
1.1525477048424253024
1.1525839092644500905
1.1526193890157341304
1.1526625151670595315
1.1527238689191541265
1.1528117535133433069
1.1529279678972133016
1.1530654451631248136
1.1532081448784066158
1.1533338693606618452
1.1534200787543216205
1.1534503300255105618
1.1534190514157069973
1.1533330299505761829
1.1532088584375210782
1.1530681140192187151
1.1529325112114594543
1.1528199711931972349
1.1527417775959543089
1.1527015590928129107
1.1526968866399929237
1.1527216225337777455
1.1527678341128428929
1.1528275816120510111
1.1528938043027936455
1.1529604002466711243
1.1530222632773954317
1.1530748352856563521
1.1531134168071337509
1.15313388089432034
1.1531338338729948401
1.1531128193517461433
1.1530718975768181611
1.1530136303467155567
1.1529421340730166001
1.1528619459216664644
1.1527766249430495549
1.1526882991354627794
1.1525981497754604899
1.1525076183829794374
1.1524193071484416517
1.1523368285931696597
1.1522644826792198813
1.1522062891601621004
1.152164344478005864
1.1521376317027740566
1.1521218452998118753
1.1521107645389081497
1.1513392113661242711
1.1511347641502065464
1.1506185417933900705
1.1514579929439174855
1.1525478515637717081
1.1518402073948785791
1.1509837551611619144
1.1509036541076145266
1.1509970499021129342
1.151465203968402129
1.1518202334029625789
1.1513539060399258229
1.15070946429703036
1.1509387150761760665
1.1515983795455249084
1.1517619203167466235
1.1515362241146320788
1.1512706061084487796
1.1506728688569070052
1.1500458115157230488
1.1499605892831810117
1.1504189591874409704
1.1510028905745646188
1.1512183422030726199
1.1508227358658291717
1.1500028911859878633
1.1491079854185297648
1.1485973915675182777
1.1486482884494932932
1.1488857646729044859
1.1489224701076803381
1.1488098117123164421
1.1487128351049593622
1.1484965831051419105
1.1479256897872029963
1.1471722015716425691
1.1467210223588288898
1.1467221438683417034
1.1468592826491572634
1.1470164845509469576
1.1473870303799775794
1.1478555417242100045
1.1479157853045511839
1.147399515660318281
1.1467436462631321881
1.14633772342763951
1.1461797815218430774
1.1461546951766568014
1.1461996853165414834
1.1462503150205716196
1.1461588965892224312
1.1457935849708185128
1.1451424589282503952
1.1443594672897592357
1.1437249023319053798
1.1435058311161756528
1.1437669384225119806
1.1443156790896160668
1.1448374206326483726
1.1450580904786922254
1.1448530293076633058
1.14435301724649241
1.1439427520314906506
1.1438954159956400414
1.1440464475434612979
1.1440880953156393751
1.1439955222821935887
1.1440210273713691258
1.1442923132496356509
1.1445885786873664092
1.1445861465631474996
1.1442550962550923632
1.1439176598382783112
1.1439493966812581682
1.1444619768644721525
1.1451849143481607207
1.1456457391692345116
1.1455420411849290829
1.1449809173841478671
1.1443672266883617716
1.1441027735480728822
1.1443322893749556801
1.1449110553414529878
1.1456256067930110643
1.1462198942863293105
1.1464749770138487062
1.1463367144727878433
1.1459363839746949942
1.145476048103326594
1.1451116264660410327
1.1449299850419489832
1.1449833884658018324
1.1452637013406083977
1.1456426322165085274
1.1459233140820710428
1.145977289497949192
1.145857525395328036
1.14573385871308564
1.1457131413637604567
1.1457926464892438378
1.1458971870247647296
1.145934950335351088
1.1458500823756267994
1.1456664987955642587
1.1454520835127319778
1.1452682025389355758
1.1451399173936827047
1.1450623141637026325
1.1450142592827112775
1.1450016824294486639
1.1450389837281729211
1.1451265497917588743
1.1452080045476238368
1.1452168041775072638
1.1451281997373734534
1.1449948515414074546
1.1449061484993008353
1.1448966992658817787
1.1449117741185248498
1.1448425516954146008
1.1446118260936799516
1.144237747362712776
1.1438212485344971814
1.1434737627304565333
1.1432733626003857008
1.1432223578429183686
1.1433091199980023323
1.1435108285418242868
1.1438355128822990103
1.1442593715313997826
1.1447121516304603617
1.1450895725163159344
1.1452810857208612916
1.1452203539325549464
1.1449109085245585682
1.1444397056274659974
1.1439605806519099751
1.1436185827592917352
1.1434817261564300672
1.1435187476744592683
1.1436299737361352857
1.1437242716806825804
1.1437860908144363847
1.1438543478685752053
1.1439595544281131456
1.144063193879364615
1.1440483732897794855
1.1438119862700897311
1.143356158237679665
1.1428090893713902521
1.1423399555001565453
1.1420654085955193047
1.1419900269767928602
1.1420492142917326728
1.1421747562035922119
1.142354474171226153
1.1426247191427822969
1.1430441845714212068
1.1436439866249656916
1.1444302642011883187
1.1453709466287216312
1.1463941154909569331
1.1474155395547966929
1.1483631568308776405
1.1491836493576406131
1.1498559524245894892
1.1503885732057699265
1.1508078675921897815
1.1511377404152407511
1.1513874119215143921
1.1515433426350245583
1.1515888025345475398
1.1515276594055008363
1.1513974819245333947
1.1512540787400453723
1.151147374031978865
1.1511037765568457036
1.1511183985549142683
1.1511616871965395514
1.1511955981790871206
1.1511893453087436168
1.1511346711511407648
1.1510546104203271955
1.1509929645873977488
1.1509990616188294776
1.1511108551283111279
1.1513317344094544659
1.1516169898584778242
1.1518871679882003445
1.1538850437780905356
1.1539562556790008419
1.1539304030574413229
1.1538240062821771836
1.153681616858986736
1.1535533634889214571
1.153469793394113152
1.1534286376273938934
1.1533958443568690377
1.1533228220815474607
1.1531725372892318582
1.1529391104361494946
1.1526516220993703321
1.1523611319533426656
1.1521181621636078507
1.151955253873199192
1.1518818361585914101
1.1518857222398217743
1.1519441633978566575
1.1520283321727200487
1.1521097531660429159
1.1521621617767490164
1.1521693969082411613
1.152130736856857407
1.1520616683191351459
1.1519864797146881497
1.1519242004029688342
1.1518774371878113261
1.1518374322473159399
1.1517975912620039836
1.1517623328334067878
1.1517443275547636361
1.1517564802470710017
1.1518021691202833257
1.1518710255656265939
1.1519435984421102503
1.1520043221052316262
1.1520527598813272707
1.1520997820735157102
1.1521543597711367823
1.1522132816251933196
1.152259044332586635
1.152267374167710301
1.1522235643334521882
1.1521332151577847736
1.1520258738984086033
1.1519433439575825773
1.1519269077212879182
1.1519967771568850878
1.1521439841783924773
1.1523364958797139845
1.1525281786257726147
1.152677535251102503
1.1527589097301054188
1.152764151807321058
1.1527050538813985447
1.1525961458805384918
1.1524503225837614551
1.1522956387003708834
1.1521513922365267391
1.152023110329227773
1.1519130001777173611
1.1518231262414624361
1.1517559309012888047
1.1517124777756313492
1.1516904343887290896
1.1516828854853911057
1.1516801387430142256
1.1516736281765858063
1.1516613716378665266
1.1516508624770251945
1.1516566539207511166
1.1516939240513179854
1.1517691271340311232
1.1518729430645282541
1.1519807654906035754
1.152061398138475079
1.1520902142442983607
1.1520588812016698821
1.1519775850332636402
1.1518686878989534694
1.1517558434205477091
1.1516540418328602424
1.1515667714011450506
1.1514903770617137546
1.1514214473879400558
1.1513636746323014926
1.1513289025802473375
1.1513319620222635109
1.1513817807500101864
1.1514750676324758683
1.1515955736655762998
1.1517192376369260742
1.1518221146564788793
1.1518882112751815949
1.1519140432629011439
1.1519084819980658363
1.1518897642554417615
1.1518801006440100299
1.1518994451744695162
1.151959689599634018
1.152061924171376317
1.1521974036088629134
1.1523508397440658246
1.1525048379332409887
1.1526445573279395784
1.1527598362228028694
1.1528447218463286905
1.1528969817022445277
1.1529177274607602666
1.1529101566467627737
1.1528794502840504776
1.1528336109220840289
1.1527820910840049784
1.1527344569619084602
1.152696340969531219
1.1526675613763945893
1.1526418024889388825
1.1526095575244692526
1.15256140483982783
1.152494589075677256
1.1524163584419087059
1.1523410727405483112
1.1522864694387098261
1.1522671626978779891
1.152288558415063946
1.1523454865887534648
1.1524249968510487108
1.1525096205605522837
1.1525838441408857715
1.1526389131724505965
1.1526731856612730809
1.1526909237024984822
1.1526974458906109611
1.1526983364057923342
1.1527017631845399848
1.1527099286634967523
1.1527269438107861088
1.1527578394488227076
1.1528057921792487228
1.1528697143194959196
1.1529414019419490511
1.153005393956234359
1.1530421551002254521
1.1530342010630194594
1.1529738855236943973
1.1528706880966144155
1.1527492311359088806
1.152640073186722125
1.1525722948269789825
1.1525624170335397878
1.1526103730149703797
1.1526992962007414079
1.1528032892441302248
1.1528984870322753764
1.1529723376709528626
1.1530266013415824133
1.1530739763909043649
1.153129191310455548
1.1532001078577869269
1.1532827675363817033
1.1533620047658950103
1.1534181364002626946
1.1534369705536657857
1.1534151864958452904
1.1533637131999263659
1.1533041198905733538
1.1532606243969103499
1.1532501994010948554
1.15327638937357424
1.1533283814014556601
1.1533848019750516656
1.1534216873255653812
1.1534197386879454506
1.1533699609907961392
1.1532754521955330684
1.1531493571262474429
1.1530096957326856355
1.1528750333413511076
1.1527607472899910057
1.1526778790634100158
1.152632788105209638
1.1526270563324303442
1.152657316439453794
1.1527163879768622667
1.1527948426731777776
1.1528823653524988835
1.1529689959651348019
1.1530459820818645955
1.1531067361560989326
1.1531466890713206741
1.1531647407315661624
1.1531595224487167783
1.1531329924724091907
1.1530852831128810543
1.1530156710902905726
1.1529279050337264412
1.1528264138294743724
1.1527195596124364396
1.1526168960121585538
1.1525270723866583022
1.1524567413291444407
1.1524092213793066808
1.1523841755127066655
1.1523778241207502937
1.1523840263034401676
1.1523962557387932293
1.1524096910177417108
1.1524231776755748946
1.1524403892785963777
1.1524692343721605337
1.152519714481624602
1.1526002440443661179
1.1527132272435698379
1.1528521199444750067
1.1530010821164491386
1.1531375073997391922
1.1532372698812503042
1.153281297479162415
1.1532612273866051922
1.1531820565372759013
1.1530605726998264249
1.1529197624225828722
1.152782548241150673
1.1526675689993257645
1.1525867442737245394
1.1525439682654858853
1.1525358978216722061
1.152555180767525389
1.1525936567898971141
1.1526440400321791291
1.1527006415617231383
1.1527587907792813393
1.1528138770123506074
1.1528611730630071719
1.1528957855844457203
1.1529129008277678725
1.1529089571493271738
1.1528829135074427636
1.1528361174863079874
1.1527711666729010265
1.1526913151444333483
1.1526006454286388259
1.1525035003953485457
1.1524036602577749644
1.1523041230432127247
1.1522080428836320998
1.1521197432369938429
1.1520446815595926093
1.1519886044583205198
1.1519563776990671133
1.1519501286270652507
1.1519677304970294962
1.1520025170734349285
1.1520442647455635399
1.1520820630277599506
1.1485547392495480956
1.1468804262940421879
1.1483633674513678002
1.1508045085200075963
1.1521985042289621948
1.1518185372428630941
1.1515967242991822506
1.1515717313992637205