/*--------------------------------*- C++ -*----------------------------------*\
  =========                 |
  \\      /  F ield         | OpenFOAM: The Open Source CFD Toolbox
   \\    /   O peration     | Website:  https://openfoam.org
    \\  /    A nd           | Version:  12
     \\/     M anipulation  |
\*---------------------------------------------------------------------------*/
FoamFile
{
    format      ascii;
    class       volScalarField;
    location    "0.0105";
    object      alphat;
}
// * * * * * * * * * * * * * * * * * * * * * * * * * * * * * * * * * * * * * //

dimensions      [1 -1 -1 0 0 0 0];

internalField   nonuniform List<scalar> 
75962
(
5.7236015337492917859e-07
6.4119000041742825183e-07
7.3941352467708806835e-07
9.2108856835444579863e-07
1.0486924905713231756e-06
1.1033316445813177606e-06
1.1637262737283904041e-06
1.2964181554187549725e-06
1.4461468355525066439e-06
1.540192371471355466e-06
1.6005654383115598539e-06
1.6816737172573942347e-06
1.7985476478053514709e-06
1.9178888951439260834e-06
2.0006198961292870033e-06
2.0515881954292056034e-06
2.1213864423799102414e-06
2.259026790167217726e-06
2.4570419754970921391e-06
2.6436998055948668148e-06
2.7465115424829578872e-06
2.7952897817490632487e-06
2.8490663566315980555e-06
2.909972370655055072e-06
2.9500298070812608944e-06
2.9817188842319829179e-06
3.0425530258563778963e-06
3.1631580215716508142e-06
3.3170527275052912702e-06
3.4531316998164096628e-06
3.5395816470201936695e-06
3.5789858473833111727e-06
3.5970402350685249456e-06
3.6250326824800137734e-06
3.7063331084483665349e-06
3.8731993987086059199e-06
3.999124231157482782e-06
4.0874964225362855479e-06
4.1634964431331713077e-06
4.2279590980300964297e-06
4.2723701882119223704e-06
4.3096267879140511169e-06
4.3759925974160814786e-06
4.4895292600987706162e-06
4.6233762186570768991e-06
4.7305672383508885076e-06
4.79163236628060072e-06
4.8252485230598512699e-06
4.8669988617356008362e-06
4.9346187026030879032e-06
5.0160819768927583027e-06
5.0846456912574533666e-06
5.1323157007560300178e-06
5.1805051948423562551e-06
5.254494519917797856e-06
5.3575780200088909402e-06
5.4689183203772750644e-06
5.562430982928054443e-06
5.6279266710047999421e-06
5.6788317405002187963e-06
5.7422326812793532852e-06
5.8339183345114350749e-06
5.9427017978038786667e-06
6.0422870689156060232e-06
6.1150528718301252627e-06
6.164857456725604724e-06
6.2088428295177514244e-06
6.2587695069783758165e-06
6.3134109806962085664e-06
6.3648786103059906016e-06
6.4067399338063515591e-06
6.4402905936298698536e-06
6.4742105836344130128e-06
6.5266997294230979211e-06
6.6107167063721544213e-06
6.7236522221814228154e-06
6.8548587508684415774e-06
6.9896013053176652373e-06
7.1098412209354082511e-06
7.1991082179725673386e-06
7.2546038205754189728e-06
7.2880036347609936559e-06
7.3161906261757610534e-06
7.3511212609371338029e-06
7.3965270397665705061e-06
7.4511375931715097785e-06
7.5144023158278684378e-06
7.5883169009307212271e-06
7.6705066209013442321e-06
7.7502746220775558118e-06
7.8139067199501119576e-06
7.8543959369397637883e-06
7.8761118654347574657e-06
7.8934524467056000209e-06
7.9241362304464460779e-06
7.9795861574497917358e-06
8.060167677378476226e-06
8.1550057916478135476e-06
8.2471916560573752713e-06
8.3215091314962232982e-06
8.3718681187328884995e-06
8.4025835134367848634e-06
8.4261413134219426168e-06
8.4551520735297717345e-06
8.4982267965156181924e-06
8.5567276043950429669e-06
8.6268856840458351694e-06
8.7016910304856716634e-06
8.7729825443764670784e-06
8.8328983179185965294e-06
8.8752896683957242308e-06
8.8978245517483751839e-06
8.9042616368691385875e-06
8.9039496523943053858e-06
8.9059038278266653517e-06
8.9213853892333330975e-06
8.9890931034248549046e-06
9.1276493541519964199e-06
9.237891299097308824e-06
9.3103602212359768726e-06
9.3528867735864153508e-06
9.3798480568269584868e-06
9.4062720022325689069e-06
9.442189177648478273e-06
9.4913496802828775412e-06
9.5519745326304277005e-06
9.6183735903469974365e-06
9.6838111347649464357e-06
9.7417255351140456056e-06
9.7861628661968362461e-06
9.8145120453434728946e-06
9.8274487659446076464e-06
9.829531245300535995e-06
9.8295301385815359008e-06
9.8365718767476226442e-06
9.8634001091860869481e-06
9.9175442186951197191e-06
9.976308090718448272e-06
1.0027926015628283493e-05
1.0065417651339574648e-05
1.0088627498667909058e-05
1.0102949774821286326e-05
1.0117844764787623852e-05
1.0143781284373548787e-05
1.0187578928918119647e-05
1.0253469071661404295e-05
1.0340609494173653261e-05
1.0446096879033005522e-05
1.0566585858252571593e-05
1.06977535671780566e-05
1.0833387154188824076e-05
1.0961206316820994112e-05
1.106354289808178485e-05
1.112699195578548677e-05
1.1149644720136035565e-05
1.1146886215644296908e-05
1.1129841752624442414e-05
1.1071915853600768754e-05
1.1013227660868453385e-05
1.0986202928811286867e-05
1.0975348926917537006e-05
1.0980118368381856691e-05
1.1039763446125112185e-05
1.1148062551709641912e-05
1.1232168208120380835e-05
1.1296169302686904094e-05
1.1346735106970125688e-05
1.1389429980129367844e-05
1.1429392654290097806e-05
1.1467546333477668288e-05
1.1504171866945973296e-05
1.1538321705221224242e-05
1.1567841150237398774e-05
1.1589536085593092564e-05
1.1600129705790615241e-05
1.1600645316447062298e-05
1.1594833664228661277e-05
1.1582941475506691178e-05
1.1545388625066826832e-05
1.1488667392331865062e-05
1.145038213595653036e-05
1.1429609995507490215e-05
1.141898816461564145e-05
1.1417420284070809881e-05
1.1442601870072393092e-05
1.1505594801869513724e-05
1.1570528068654346688e-05
1.163911359966596607e-05
1.2422984575898939926e-05
1.2359196430445283679e-05
1.2314618387868631129e-05
1.2287031394422824035e-05
1.2272685599421199201e-05
1.2264651852008553245e-05
1.2266286362603906601e-05
1.2304928873712133361e-05
1.2453099466553148734e-05
1.264746522172109564e-05
1.2800664895415356508e-05
1.291381046527041959e-05
1.2992180451528828307e-05
1.3042992644082862156e-05
1.3073472162692245177e-05
1.308904687772965373e-05
1.3093545007458661116e-05
1.308986191634933094e-05
1.3081591590475377359e-05
1.3069547735033337543e-05
1.3045433750922697867e-05
1.2981192139108749584e-05
1.2852261285119645758e-05
1.2742193348185981925e-05
1.2666390662171247807e-05
1.2624920869343354363e-05
1.2607424296381162948e-05
1.2601203456376817416e-05
1.2623302583248636002e-05
1.2744929103496675506e-05
1.2946345133507650735e-05
1.3097704419697421535e-05
1.3199543989108618222e-05
1.3261102435552381116e-05
1.3295179460811170228e-05
1.331311668760488712e-05
1.332394159869343617e-05
1.3333243171280459061e-05
1.3342888202762866624e-05
1.3352847109137575067e-05
1.3360375199617540749e-05
1.3363536937552814027e-05
1.3360382415891463499e-05
1.3352388790098201234e-05
1.3340838106609447173e-05
1.3314159098739774019e-05
1.3230435835635970195e-05
1.3042000826111256988e-05
1.2876671627396323738e-05
1.2762371164382541245e-05
1.269940681002926652e-05
1.2674446220282516504e-05
1.2666534035794370036e-05
1.2687204301161426358e-05
1.2809350425799045749e-05
1.3080920624232887309e-05
1.3314586079636534644e-05
1.3502055243000905723e-05
1.3656716804691120031e-05
1.3794469415736823303e-05
1.392385122989058972e-05
1.4043844905528527232e-05
1.4143962582235302812e-05
1.4212403203640135353e-05
1.4243128866372617786e-05
1.4243164632837487611e-05
1.4226003040822365498e-05
1.4160667908653948245e-05
1.394934304154767728e-05
1.3707007478859543234e-05
1.3557596296248854595e-05
1.3490559448886935316e-05
1.3472465206168335479e-05
1.3478714628809216662e-05
1.3562762187240838709e-05
1.3730083546832294868e-05
1.3838022529892617923e-05
1.3890807375854807249e-05
1.3907757879195679275e-05
1.3907321814230741474e-05
1.3901586018261585708e-05
1.3895142967616173129e-05
1.3888108949071201824e-05
1.3878857561527194905e-05
1.3861060194280254792e-05
1.3814412048906220972e-05
1.367630027298260138e-05
1.3466196679712266878e-05
1.3287867212436340911e-05
1.3151332141292891497e-05
1.3057055726015804375e-05
1.2999263311661918762e-05
1.2967977759884685758e-05
1.2952154507687571044e-05
1.2942574070116753045e-05
1.2939771998014499972e-05
1.2955759544838501952e-05
1.2977245572136147586e-05
1.2989905878334737538e-05
1.2994206085859846841e-05
1.2991905711109450353e-05
1.2985030910898689971e-05
1.2975730860966895572e-05
1.2963758142257026502e-05
1.2944118472163365936e-05
1.2902381481582908139e-05
1.2837645751516020272e-05
1.2777256699742821838e-05
1.272437702408832793e-05
1.2679722260189675009e-05
1.2644748080013114779e-05
1.2618432833716029302e-05
1.2599922882602001615e-05
1.2587537956277168889e-05
1.2579653544064075564e-05
1.2574154272036274147e-05
1.257039728387340315e-05
1.2570397852033300467e-05
1.2580473510179862281e-05
1.2594405078629444648e-05
1.2604122135896312994e-05
1.2609357968870388953e-05
1.2610502059671320791e-05
1.2609160074750993096e-05
1.2606391773037408182e-05
1.260290439412645156e-05
1.2598594808435046894e-05
1.2591880156121942357e-05
1.2581516261224585026e-05
1.2571152554534394425e-05
1.2561885205368489369e-05
1.2554316080538968875e-05
1.2548856231588854319e-05
1.2544841827633008841e-05
1.254235764966220991e-05
1.2541677718720531525e-05
1.2544181943912292111e-05
1.2556088108496262632e-05
1.2572882871501074784e-05
1.2586139422358531828e-05
1.2595311392877978616e-05
1.2600445322684547005e-05
1.260179929637696966e-05
1.2599727006157388637e-05
1.2595020667559146156e-05
1.2588656678371501065e-05
1.258055496373486004e-05
1.2571169362098837363e-05
1.2560020145238872335e-05
1.2545743237156995907e-05
1.2526780206993729368e-05
1.2507819784707362826e-05
1.2490777422696164054e-05
1.2476628125323601699e-05
1.2465019568365701312e-05
1.2455727895871801983e-05
1.2447791230366329272e-05
1.2441487360650332531e-05
1.243899867750138337e-05
1.2446347822510418451e-05
1.2458865370198219055e-05
1.2469992737585918369e-05
1.2479247375178088148e-05
1.2486431687768787286e-05
1.2491146163530185442e-05
1.2492791634926144969e-05
1.2491082658565760537e-05
1.2486048931877306872e-05
1.2478144085101603879e-05
1.2468350906577847914e-05
1.2457646279951356714e-05
1.2446722474566565707e-05
1.2435782178308947592e-05
1.2425002720617266962e-05
1.2413926882247700975e-05
1.2401309930634400131e-05
1.2388417767294715392e-05
1.2375868109418727137e-05
1.2363833650853710096e-05
1.2352362240535735553e-05
1.2341390265657128011e-05
1.2330921542010702654e-05
1.2321016515252919957e-05
1.2311586291397717046e-05
1.2302512868583324526e-05
1.2293615947239711018e-05
1.2285189845106161215e-05
1.2276948233076798026e-05
1.2269157646350144024e-05
1.2262704533181393543e-05
1.2260366618905721526e-05
1.2261570545435772865e-05
1.2262989515449517343e-05
1.2264433514740696505e-05
1.2265551714343717396e-05
1.2265912961943280094e-05
1.2265118339069192669e-05
1.2262883877564723434e-05
1.225904947166448576e-05
1.2253699530160035736e-05
1.2247194763051123505e-05
1.2239784095894421594e-05
1.2231727182912994638e-05
1.2223386087533662703e-05
1.2215066679618506094e-05
1.2206751169220785027e-05
1.219830867043532079e-05
1.2188611233545701881e-05
1.2176209974416675371e-05
1.2160404470367430169e-05
1.2145908329444535676e-05
1.2129499536121686115e-05
1.2114622246377167292e-05
1.2097976433068378851e-05
1.2083335049696070901e-05
1.2067171918855711059e-05
1.2053249247356338805e-05
1.2037933248018111985e-05
1.2024703397175756561e-05
1.2009844840441564001e-05
1.1996736308265101668e-05
1.1981894341849551298e-05
1.1968544745488143236e-05
1.1953648413021071174e-05
1.1940420189003075923e-05
1.1925909531145585887e-05
1.1913515134963541058e-05
1.1900245901951187047e-05
1.1889354066311533706e-05
1.1877669664223143922e-05
1.1868185613968912882e-05
1.1857756981337086831e-05
1.1849145429245665096e-05
1.1839299261522687147e-05
1.1830960037464759862e-05
1.1821174035210351677e-05
1.1812727156062630712e-05
1.1802820266029661746e-05
1.1794206817927114131e-05
1.178395768554082364e-05
1.177495057014567439e-05
1.1764080209267832922e-05
1.1754352083497535711e-05
1.1742875926284901189e-05
1.173255105000198397e-05
1.1720677096588188359e-05
1.1710258789036119008e-05
1.1698413127365188472e-05
1.1688074983762141977e-05
1.16763675391740998e-05
1.1666151093339803088e-05
1.1654574079992398064e-05
1.164434960842306332e-05
1.1632679929756011591e-05
5.9466966405913387408e-07
7.0668221369025117845e-07
8.4698339704732120845e-07
1.0111025318921379983e-06
1.1160763978952221655e-06
1.1631999309356629784e-06
1.215806380435461468e-06
1.3298539739029294713e-06
1.508274650232988243e-06
1.6583415278807389747e-06
1.7392179384843851778e-06
1.7826698773707031138e-06
1.8606412973219716329e-06
2.0111917478155315102e-06
2.1376168352409777566e-06
2.1976863468299749353e-06
2.2519889342352113963e-06
2.373218691609522508e-06
2.5269762787114067049e-06
2.6373329616700942892e-06
2.7087733251252930274e-06
2.7893336218291902078e-06
2.9044251729293149235e-06
3.0273151345521929111e-06
3.1183753634902848674e-06
3.1646880046943680268e-06
3.1966507370062614269e-06
3.2610190588255213657e-06
3.4097780956807123127e-06
3.5658978477434962457e-06
3.6677405477689842259e-06
3.7147951717423438546e-06
3.7425286198413886461e-06
3.7940626044825251272e-06
3.9144284712763248042e-06
4.0419368150975879713e-06
4.1555169893943149793e-06
4.2701861067684202428e-06
4.3851702195706677276e-06
4.4850393772317112114e-06
4.5563247528791404772e-06
4.6047978128732363856e-06
4.6558309315495609421e-06
4.7320068330888896281e-06
4.8345867293904227721e-06
4.9429297822513337018e-06
5.0304765890971259252e-06
5.0828527146547702997e-06
5.1064217246628976874e-06
5.123263875103078053e-06
5.1571850313774259762e-06
5.2447347910976786176e-06
5.3864583288347751524e-06
5.5095466543794872552e-06
5.600316380081960709e-06
5.6710817687162745035e-06
5.742713994859989831e-06
5.8277427462273766439e-06
5.924522944594392659e-06
6.0222751078500258754e-06
6.1117199853693786164e-06
6.1904490093544861071e-06
6.2610048454388185079e-06
6.3266371454570387338e-06
6.3903988822025211466e-06
6.4585017470096466071e-06
6.5382387962277113089e-06
6.6285501187205786024e-06
6.7160350960238473554e-06
6.7829402825152570292e-06
6.8201069821107040896e-06
6.8351266852259690406e-06
6.8501945600639321766e-06
6.8906300286237379271e-06
6.9930230984683324993e-06
7.1142268791194835195e-06
7.2182048810181273588e-06
7.3018841226291499461e-06
7.375146443751851785e-06
7.4470218518091271448e-06
7.5202026287795932603e-06
7.5920893134187682189e-06
7.6609398414057954798e-06
7.7285081844954912265e-06
7.7971614076125665466e-06
7.8673016200545527253e-06
7.9378836282505669148e-06
8.0038858247283678314e-06
8.0573438793899404651e-06
8.0931630711664879785e-06
8.1145569518229098733e-06
8.132342735596579449e-06
8.1642506604791894865e-06
8.2278688150083039798e-06
8.3310283366098703141e-06
8.467649422700624108e-06
8.6186777992270783069e-06
8.7587099440290881302e-06
8.8669511369397514675e-06
8.9347842045606039606e-06
8.9662716635870152619e-06
8.9745194356492572038e-06
8.975189239130848472e-06
8.9812585315998902402e-06
9.0039193569675384264e-06
9.0604996590968696948e-06
9.1259816467072768243e-06
9.1869531265147451945e-06
9.2390636300681037519e-06
9.2801861774361243886e-06
9.3085157103396173618e-06
9.3232042967162327083e-06
9.3274869911547715373e-06
9.3285460994768636285e-06
9.3349313639293871346e-06
9.3636545814559723555e-06
9.4731893048154525383e-06
9.6504426102323285916e-06
9.7852622927370619692e-06
9.8704657648031859571e-06
9.9175391215766713066e-06
9.9453460969100020324e-06
9.972364924051675618e-06
1.0009216482308587755e-05
1.0058006863388529038e-05
1.0115202535021259396e-05
1.0174980107372437777e-05
1.0230314675255411871e-05
1.0275577640528832867e-05
1.0306682206245812319e-05
1.0323553590464584157e-05
1.0328469409284119176e-05
1.0326718833871762686e-05
1.0324625340866850365e-05
1.0328542788564740664e-05
1.0349449816691727591e-05
1.0390198984907537971e-05
1.0432863636094440261e-05
1.0469988054925699221e-05
1.0500076277916005021e-05
1.052630995265504278e-05
1.0554939714395437554e-05
1.0593860141893210276e-05
1.0649647636868423992e-05
1.0723903591139144582e-05
1.081602796139833627e-05
1.0921859282330212285e-05
1.1036820800375210188e-05
1.1156574688738486227e-05
1.1275801515319545075e-05
1.1389208087755558845e-05
1.1489618213334265427e-05
1.156657547080849347e-05
1.1612740747516033126e-05
1.1627990950570972083e-05
1.1624334916052291424e-05
1.160879483372545823e-05
1.156013231470317603e-05
1.1517971856429672775e-05
1.1500490528333375854e-05
1.1495178155096694026e-05
1.1522633142119217091e-05
1.1654665859400618967e-05
1.1829896647632239188e-05
1.1953643491940384129e-05
1.2033289338011020451e-05
1.2081731926590209874e-05
1.2111169781480308916e-05
1.2129851874721564732e-05
1.2141138499008283664e-05
1.2146705408088492311e-05
1.2148487018940115883e-05
1.2147707036850120672e-05
1.21444376957579312e-05
1.2140030060838735422e-05
1.2134105068701009301e-05
1.2127346905805123578e-05
1.2113825464339813529e-05
1.207336615950759048e-05
1.2020778918400529836e-05
1.1984570003659905711e-05
1.1964363807958596357e-05
1.1953560560951229298e-05
1.1953724780930944372e-05
1.1988280589723725124e-05
1.2088073260799682456e-05
1.2188498044297170033e-05
1.2281753633697731242e-05
1.2369581846680400937e-05
1.3115292570113412174e-05
1.3024642468201610876e-05
1.2952542541503009798e-05
1.2900524924114604167e-05
1.2867423050663940218e-05
1.28500742878515396e-05
1.2840833882448989963e-05
1.283845397242013119e-05
1.2865477351492092688e-05
1.2987733752249931268e-05
1.3178374143894881643e-05
1.3336619549305657773e-05
1.346403595577061475e-05
1.3566586117674243504e-05
1.3649575501326965415e-05
1.3715590657997523503e-05
1.3765020710054188383e-05
1.3796934829086519351e-05
1.3811047667164076848e-05
1.3810083547256393334e-05
1.3800294877429237101e-05
1.3784212236687707755e-05
1.3745279110174078144e-05
1.3636422322427118776e-05
1.3499832186060883437e-05
1.3401323691685498244e-05
1.3343072297922708541e-05
1.3315871788262397682e-05
1.3305141671895225693e-05
1.3310761834398146078e-05
1.3378528848079255536e-05
1.3532958369016028334e-05
1.3655783798039246074e-05
1.3742456934967947729e-05
1.3801255805447410413e-05
1.384216612110430833e-05
1.3873716633838758627e-05
1.3902754085233722962e-05
1.3932196229622194797e-05
1.3962235582759310431e-05
1.399102732413790541e-05
1.4015286222218905165e-05
1.4031080030836075718e-05
1.4036216041571868818e-05
1.4031813903251486825e-05
1.402207845960876837e-05
1.4004252968313324657e-05
1.395091144435854325e-05
1.3792363064352571668e-05
1.3605318145768482564e-05
1.3472095928174616469e-05
1.3394575758111545758e-05
1.336198566071295208e-05
1.3350737385514337371e-05
1.3359206056710469087e-05
1.3441655400445368636e-05
1.369486589430483202e-05
1.3952828963469460157e-05
1.4154901435792444225e-05
1.4317750489015666535e-05
1.4462436224983721956e-05
1.4604076348627951934e-05
1.4746042823964424038e-05
1.4874972744500129871e-05
1.4973699029724965405e-05
1.5027782686619771903e-05
1.5039712144161503118e-05
1.5027637442735232218e-05
1.4980695311226962504e-05
1.4804926322973883644e-05
1.452664692157653914e-05
1.4340027983191650838e-05
1.4247456169207328356e-05
1.4217606484029167004e-05
1.4212810989899153055e-05
1.4253771980812832523e-05
1.4390717563905922486e-05
1.4503503604300474854e-05
1.456886840094405306e-05
1.4602718217899118147e-05
1.4620244950055001249e-05
1.4630500109965652514e-05
1.4636241867562399473e-05
1.4635484840555110618e-05
1.4629115785026765629e-05
1.4617701205357198728e-05
1.459045479595669399e-05
1.4507996934758731397e-05
1.4304853646392806261e-05
1.4103149436365290464e-05
1.3946679639492211864e-05
1.383668156081093329e-05
1.3767460997279241963e-05
1.3728590757852511108e-05
1.3708561092870384188e-05
1.369700334736639328e-05
1.3690015047193142419e-05
1.3694958989869924387e-05
1.3707348129279614497e-05
1.3712799654680161567e-05
1.3711754675804580254e-05
1.3705714054006884969e-05
1.3696978538432706115e-05
1.368607485552121842e-05
1.3669614691659886512e-05
1.3636134397404346347e-05
1.3572840971799385182e-05
1.3509642552733697811e-05
1.3452774085269741123e-05
1.3403918060563279005e-05
1.3363047891758606921e-05
1.3331349726674543917e-05
1.330736039255680405e-05
1.3290060192772432685e-05
1.3278024972902688228e-05
1.3269914478879954575e-05
1.3264085834403816023e-05
1.32601065980901115e-05
1.3259412651534058396e-05
1.3266329603286300802e-05
1.3275515911712347091e-05
1.3281452932091692757e-05
1.3283806491988953022e-05
1.3283144389518912619e-05
1.3280774185063558626e-05
1.3277141865065246142e-05
1.3272837317938394717e-05
1.3267400088219383778e-05
1.3259310945113090378e-05
1.3249267250365500572e-05
1.3239591800811802467e-05
1.3231000246267896487e-05
1.3224089315308871028e-05
1.3219111733522255411e-05
1.3215569456694296281e-05
1.3213541746048010906e-05
1.3213235949116167007e-05
1.3216340185985284362e-05
1.3229443362098804152e-05
1.3246498953076082244e-05
1.3259584937212195261e-05
1.3268084060651194966e-05
1.3272306727118822961e-05
1.3272372824137220043e-05
1.3268851777677388351e-05
1.3263088662329421138e-05
1.3255390477135266334e-05
1.3246243495778456557e-05
1.3235579818526819148e-05
1.3222425571470372148e-05
1.3204353769418047666e-05
1.3184166868371057608e-05
1.3165247423367594873e-05
1.314871222993394212e-05
1.3135060738674434226e-05
1.3123934539853546492e-05
1.3114740272776594066e-05
1.3106758074367732346e-05
1.3100626493621899901e-05
1.3098925261444158781e-05
1.3108406490080918086e-05
1.3122250341057051785e-05
1.3133730461814063453e-05
1.3142362273249558346e-05
1.3147812368800594054e-05
1.3149638854057202651e-05
1.3147860770096199791e-05
1.3142567051644682893e-05
1.3134225005521152623e-05
1.3123804430325604342e-05
1.311237910390785174e-05
1.3100588941714351159e-05
1.3088853652983027645e-05
1.3077439362350108145e-05
1.3066178130385309796e-05
1.3054988072745115699e-05
1.3043908457804180104e-05
1.3033015443129578883e-05
1.3022346528819860167e-05
1.3011919452841555749e-05
1.3001831814734809731e-05
1.2992145809635646694e-05
1.298282691482992334e-05
1.2973783555418175024e-05
1.2964887731480170081e-05
1.2956146831614972681e-05
1.294757734243848492e-05
1.2939196884306520741e-05
1.2931333862501225376e-05
1.292499186350463909e-05
1.2921551919234143467e-05
1.2919154230170514614e-05
1.2917787204217042845e-05
1.2917268116004929668e-05
1.2917208169539738771e-05
1.2917163109415490495e-05
1.2916506408985266473e-05
1.291482138072408066e-05
1.2911700673965120971e-05
1.2906775148380602276e-05
1.2900396184385035664e-05
1.2892786413092340343e-05
1.2884278573885661593e-05
1.2875164993035065843e-05
1.2865879070320425387e-05
1.2856656784413940782e-05
1.2847557279696531461e-05
1.2838188111246722837e-05
1.2826875114197643386e-05
1.2813841556324827401e-05
1.2798193834478790456e-05
1.2784311956357137361e-05
1.2768211892573349338e-05
1.2753976490195230339e-05
1.2737636343470301533e-05
1.2723522033052124726e-05
1.270751482200274912e-05
1.269401129068279073e-05
1.2678675474426761476e-05
1.2665759638082337794e-05
1.2650715170280724117e-05
1.2637651191347477281e-05
1.2622243755537666492e-05
1.2608479472740247222e-05
1.2592495866345230476e-05
1.2578375776294858877e-05
1.2562411085690281529e-05
1.2548885450468953636e-05
1.2534071623585193108e-05
1.2522088125701004413e-05
1.2508977355603176525e-05
1.2498512843604598523e-05
1.2486716922561784859e-05
1.2477119657231159513e-05
1.2465844256732781504e-05
1.2456473097663442164e-05
1.2445239879380377303e-05
1.243575935955649564e-05
1.2424422804479115853e-05
1.2414843379246699235e-05
1.2403252714476697966e-05
1.2393389861911130646e-05
1.2381281946033857483e-05
1.2370837909387699238e-05
1.2358168492500301022e-05
1.2347083331704238976e-05
1.2333925826621020905e-05
1.232257927943224291e-05
1.2309320402078429462e-05
1.2298015764259545126e-05
1.2284925793311310624e-05
1.2273806766538873357e-05
1.2260969734611495651e-05
1.2250027859296688508e-05
1.2237370473329522785e-05
6.3419432874109016206e-07
7.3971392339852062482e-07
8.1879658042364054558e-07
9.6267773729354152938e-07
1.1318262359147836106e-06
1.2487271538739824995e-06
1.3086260944439556482e-06
1.363507096731112742e-06
1.47467873867534127e-06
1.6605214106463981342e-06
1.8263606650236097007e-06
1.9241077588146939793e-06
1.9727998858150145624e-06
2.0383613456160315031e-06
2.1685878331107132338e-06
2.3238799578343951403e-06
2.4482236559832329454e-06
2.516602727792388749e-06
2.5611710271716399741e-06
2.6508884611778611082e-06
2.818972220398542186e-06
2.9401275072495976998e-06
3.011902095932573951e-06
3.0939697370731681444e-06
3.2048381094913861193e-06
3.3121668397247979537e-06
3.4041681962293665588e-06
3.510824312324367044e-06
3.6440598672298214017e-06
3.7648001606501897833e-06
3.8380940643916318283e-06
3.8778491304789256431e-06
3.9300372999279732463e-06
4.0361558835510480303e-06
4.197064113898254473e-06
4.3769436553265498761e-06
4.5235951113704658813e-06
4.6039195471743345737e-06
4.635336826752457353e-06
4.6729600247675573521e-06
4.7577961543517183863e-06
4.8485622711341527406e-06
4.9111569480667137825e-06
4.961428695405070699e-06
5.0379097229214930554e-06
5.1532687584923876921e-06
5.2778203520105733277e-06
5.3738719119873640533e-06
5.4249292452366047111e-06
5.4453266428225173372e-06
5.4669434322733910194e-06
5.5191765528724093056e-06
5.6079058493822164815e-06
5.7138069118542873749e-06
5.8404005580016514289e-06
5.9860994480161265185e-06
6.1346700141998385428e-06
6.2614951919659387155e-06
6.3513299037093793155e-06
6.4092796365218781935e-06
6.4554012559016268224e-06
6.5097419247770135458e-06
6.5814302125831619682e-06
6.6672404217563219353e-06
6.7595643208197735217e-06
6.8524474132214353424e-06
6.9429654322230163887e-06
7.0257628181202042914e-06
7.0925994613006375361e-06
7.1365222467397009586e-06
7.1567871769038179206e-06
7.1629986164686920496e-06
7.1727662188817581458e-06
7.2054202200286116619e-06
7.3074208460464726034e-06
7.4839284033239768121e-06
7.643371606534710803e-06
7.7630745873928281328e-06
7.8400609297786745847e-06
7.8902911479162336788e-06
7.9380643132907185419e-06
7.9999627220766468902e-06
8.0778479142594444292e-06
8.1629028073162329047e-06
8.2447181102574826291e-06
8.317680219544499386e-06
8.380041065686097125e-06
8.4313485024746315591e-06
8.4712512084029807267e-06
8.5008426106406306886e-06
8.5280029108344342781e-06
8.566413068098847284e-06
8.6317320918542466269e-06
8.7330713646127184008e-06
8.865714286926017955e-06
9.0103196491625875137e-06
9.1429311882663759879e-06
9.2447595541542121046e-06
9.3079698314162650341e-06
9.3367811152740705463e-06
9.3453324733694694948e-06
9.3539377494515227264e-06
9.3824049341357959554e-06
9.4386947032292383461e-06
9.5123728503279501465e-06
9.5899540356820579291e-06
9.6580100285325559375e-06
9.7089468033380211685e-06
9.7415949365113735766e-06
9.7593853255746120347e-06
9.7665799482357999029e-06
9.7681503294714954356e-06
9.7690516373754812283e-06
9.7753624595423474855e-06
9.8017498157853567424e-06
9.8967130158902823786e-06
1.0038387502465539555e-05
1.0155641086160139178e-05
1.0241360204913940035e-05
1.0300577243405467721e-05
1.0346791194927281495e-05
1.039564482028948918e-05
1.0456920081681394058e-05
1.05316125461553743e-05
1.0613119149290931235e-05
1.06925331577529763e-05
1.0761480827747669438e-05
1.0815130366671507652e-05
1.0852346088064042203e-05
1.0874559046204207701e-05
1.0884991983713407786e-05
1.0887191136955896753e-05
1.0883879924925172277e-05
1.0878070434693957349e-05
1.0872403422268766307e-05
1.08690486539779993e-05
1.0871895344626938306e-05
1.0895093374611065646e-05
1.0982600234937805547e-05
1.111621745497196562e-05
1.1223878992021856248e-05
1.1294643306286642306e-05
1.1332081776167518826e-05
1.135338628001053942e-05
1.1382904768054075679e-05
1.1436985060675885231e-05
1.152353388663581784e-05
1.1643157085082295857e-05
1.1787252734589381256e-05
1.1943031984779292146e-05
1.2093001788240805762e-05
1.2217094441470079512e-05
1.2299605335558114587e-05
1.23346718364760026e-05
1.2336850160312950761e-05
1.2324477396872915807e-05
1.227469522191592119e-05
1.2193758849751059193e-05
1.2152859902221859695e-05
1.2140243217077202606e-05
1.2147626378380281512e-05
1.2233924402189026506e-05
1.243661850305551492e-05
1.2582245553794754885e-05
1.2663745265095410387e-05
1.2701513415355100272e-05
1.2718310888653582013e-05
1.2731062538843229999e-05
1.2746806508009693418e-05
1.2765217831004094741e-05
1.2783251410156925342e-05
1.2796309663445506081e-05
1.2801382803875310649e-05
1.2799815331006042377e-05
1.2793330347060718761e-05
1.2785653269809370511e-05
1.2774144305798635504e-05
1.2738016117699084849e-05
1.2664715922528602772e-05
1.2607838864064401785e-05
1.2572207792771798618e-05
1.2554427298260626268e-05
1.2545804206526592364e-05
1.2560278203087413447e-05
1.2642961243924201914e-05
1.2765116070651192189e-05
1.2866086985289634502e-05
1.295471438366722226e-05
1.3035667183258411588e-05
1.3760112985631176518e-05
1.366708533997656742e-05
1.3602884113214612838e-05
1.3565229640683569245e-05
1.3547262969647657176e-05
1.3538910499964191319e-05
1.354217051913662897e-05
1.3589367988428660707e-05
1.3742039593809889539e-05
1.3906059624872608904e-05
1.4037025583490436075e-05
1.4140137313988774255e-05
1.4224580448029540647e-05
1.430193481291017321e-05
1.4377577959747389242e-05
1.4452115614067056397e-05
1.4520297340754775609e-05
1.4573343103735043392e-05
1.4605113682128201415e-05
1.4614729383244539669e-05
1.4607655075800396696e-05
1.459302039426192964e-05
1.4558635269332772746e-05
1.4452810225560671503e-05
1.4264924020385608247e-05
1.4116717764075891974e-05
1.4019260458099170721e-05
1.3967614737638347209e-05
1.3946506498665947328e-05
1.3938789157759243711e-05
1.3954871557076386335e-05
1.4048238996461374638e-05
1.4196225101798621649e-05
1.4315400494564315027e-05
1.4407824087172990557e-05
1.4479406892094626107e-05
1.4535715693073021523e-05
1.4582449599205301682e-05
1.4622909692587112636e-05
1.4658427876891667375e-05
1.4688838831431350485e-05
1.4711970383525077157e-05
1.472545586441656897e-05
1.4727507554283591823e-05
1.4720799625195120353e-05
1.4709461727609189611e-05
1.4686584249210098959e-05
1.4615720464224673161e-05
1.444018469796086836e-05
1.4279763791241272783e-05
1.4174151928243625167e-05
1.412151734105230718e-05
1.4103050348942275456e-05
1.4100628145070814566e-05
1.4147374803130324949e-05
1.4363033390289400406e-05
1.4713114718699323982e-05