/*--------------------------------*- C++ -*----------------------------------*\
  =========                 |
  \\      /  F ield         | OpenFOAM: The Open Source CFD Toolbox
   \\    /   O peration     | Website:  https://openfoam.org
    \\  /    A nd           | Version:  12
     \\/     M anipulation  |
\*---------------------------------------------------------------------------*/
FoamFile
{
    format      ascii;
    class       volScalarField;
    location    "0.0105";
    object      k;
}
// * * * * * * * * * * * * * * * * * * * * * * * * * * * * * * * * * * * * * //

dimensions      [0 2 -2 0 0 0 0];

internalField   nonuniform List<scalar> 
75962
(
3.4809081589432419829e-05
4.3770274213538089086e-05
5.807826514234321611e-05
9.0192319439125453518e-05
0.00011690396245849197533
0.00012946694223472639609
0.00014423598913305052177
0.00017918332646048326195
0.00022334648819378100006
0.00025383202272340936803
0.00027477989426314059548
0.00030401077258212805829
0.00034786225348463735776
0.00039532828769731889664
0.00043065877985516508699
0.00045428914143816800843
0.00048720138761393897873
0.00055347791050356232988
0.00065545119087447923679
0.00075933715327025175321
0.00082018691576886751382
0.00085075505516941463211
0.0008856833315951231694
0.00092596119231608254013
0.00095307259746613354548
0.0009750013370231828784
0.0010168775651152178741
0.0011006172468406973195
0.0012116018124145025089
0.0013145800970207465602
0.0013827880895378413632
0.0014150624031918580727
0.0014310974653031656705
0.0014563573914597111383
0.0015255678942605313195
0.0016689521758993463262
0.0017817524899267451685
0.0018638901568267458083
0.0019367229805912246354
0.0020005641442064851093
0.0020461710886066687178
0.0020847551527723075931
0.002151494857680027583
0.0022664004422745971656
0.0024059039900146839824
0.0025223618945247085199
0.0025929213725816007557
0.002634911549407639806
0.0026849549814395813271
0.0027625642422126426428
0.0028565669496015437187
0.0029385056940318407884
0.0029987039938645094865
0.0030609816105864494015
0.0031549080080822402769
0.0032853748397184772377
0.00342843105355716566
0.003552393653723757462
0.0036438655810659644797
0.0037185409184692591947
0.0038099542568168312008
0.0039384581409991964093
0.004090458194549604666
0.0042317360697199535996
0.0043382390783392966657
0.0044144354359905487589
0.0044831364395003870174
0.0045604885423210974466
0.0046457745571076933949
0.0047292407615225151921
0.0048015626643006029117
0.0048626918360086925433
0.0049230569787764378101
0.0050097167782874344952
0.0051451538148842282036
0.0053302015650022399954
0.0055517887679714236424
0.0057863027448374721937
0.0060011224381792882196
0.0061648386388171577677
0.0062698621355727025481
0.0063349875934957111667
0.0063900818298284530611
0.0064578246807796817891
0.0065464115677206276972
0.0066536150258877284694
0.0067773302989585625794
0.0069208638321330527565
0.0070813956907090237075
0.0072410460882215491041
0.0073741012329741964515
0.0074654660733554549859
0.0075218102043810445081
0.0075701664906617930142
0.0076453003561759332041
0.0077695883349759549755
0.0079436762690341857635
0.0081461382521004939428
0.0083438667654809062224
0.0085070580968251499621
0.0086236160182712670585
0.0087008916548582723033
0.0087621538125760949078
0.0088320420471025649217
0.0089297349136543552328
0.009061574212602096709
0.0092230523799055868367
0.0094002280803261936692
0.0095737000020947662926
0.0097228985350785324809
0.0098313540194716851628
0.0098932303872425204211
0.0099178324217789968348
0.0099273320298034206655
0.0099425726500171947991
0.0099890375660347321962
0.010154627695858274919
0.010487645025031841484
0.010764214914179970686
0.010958223494471491105
0.011083133440765356725
0.011169031607511700072
0.011250007375105879753
0.011350557071568539991
0.011482030953724553166
0.011642680792976208004
0.011820072815276774086
0.011997540627136748029
0.012158153741142100485
0.012286711098567026576
0.012376542580506896818
0.012428783394220909927
0.012453729639806754639
0.012471655273873867922
0.012504591357757820561
0.012585078772797584148
0.012735377851983351039
0.012901321288117243921
0.013054949489801534121
0.013177343099964745898
0.013264467319661627301
0.013326360943620786312
0.013386035326700174847
0.013472232734078787991
0.013605838846990193566
0.013800731033793188843
0.014056212332943721424
0.014364618478765130843
0.014717217926668246797
0.015103036252808645784
0.015506442647344235997
0.015893583389334962896
0.016211857265591277794
0.016418463825717169446
0.016504334953765797955
0.01651402147978599938
0.016482372235314918935
0.016333333779242256018
0.016186266441590744375
0.016136878817066432207
0.016137620338437495132
0.016183962373409781915
0.016390157663509916097
0.016741962816133451608
0.017021663468087477877
0.017239138432413418645
0.017413057248517375963
0.017560064176114671686
0.017697775481667697706
0.01783241586047560473
0.017968403808164445934
0.018104314316040735072
0.018231726113290623592
0.018336209880800209693
0.018402432634689547264
0.018430615281041756726
0.018433308800670695354
0.018415106391645660877
0.018318609733466672401
0.018166319856463518378
0.018077461709982357158
0.018046147112423676501
0.01804605886079141755
0.018072002644317426007
0.018180758398327740571
0.018411303413962826214
0.018651668165514920933
0.018907311168768720783
0.022901691624284205989
0.022706630230369468509
0.02258099529189440402
0.022515178448697579366
0.02249567236254514796
0.022498541784366225121
0.022537409078412121849
0.022713631698024507738
0.023299202678677705808
0.024071566353563455393
0.024697478333584925447
0.025173267020617538098
0.025514296114595807347
0.025746306887337915004
0.025897053835383529452
0.025988265484392952809
0.026035927089660806932
0.026052404839197088049
0.026052820425700434076
0.026041036415468933607
0.025983668216152427249
0.025769161210260835282
0.025299520938254858177
0.024906278009466185225
0.024648688934640731324
0.024525827507176078957
0.024497444473002893961
0.024514319198775870456
0.024642251513454494632
0.025161332565168188086
0.026009386950189436472
0.026668056260967364784
0.027129247463505708204
0.027423701441496851211
0.027600532959678146516
0.027705589234376441082
0.027777402232965490297
0.02784143934478354801
0.02790810574471359537
0.027979323483024072516
0.028044290113492638394
0.028094184903301420986
0.028119375326274159005
0.028124453697449001977
0.028113852368962324174
0.028039004781745573841
0.027725631391789979513
0.026978268962404738929
0.026334074570139368726
0.025905855647932914121
0.025690586359121775351
0.025632027996459316038
0.025644014456902598786
0.025771001404103266452
0.02630922562907329551
0.027476774257335176421
0.028505354172344770508
0.02934704699812619097
0.030052125528834659068
0.030687511304514400456
0.031290825341258703129
0.031857880920599809804
0.032340640454985636332
0.032683646347456997427
0.032857680880737746842
0.032895022387955323573
0.032859660397454429348
0.032611474785611521687
0.031705771187500210451
0.03067213919523455179
0.030065966715495950207
0.029826977994704254038
0.029801874440930156002
0.029879618503662597889
0.030297543783052844485
0.031094228683788124878
0.031627346715657526921
0.031907816321606746746
0.032020481322840507743
0.032049871690864352447
0.032052881112468421809
0.032052617178282866162
0.032052003952092136818
0.032045697799877009837
0.032006204333563527398
0.03184101153555098096
0.031264586691772566773
0.030369035762208704959
0.029629076065950377822
0.02908266803498661332
0.028725471063902170699
0.0285276008721977066
0.028442727411181589758
0.028421327532315250608
0.028422897788974506306
0.028450171524444598653
0.028557072787168073097
0.028687745059999412295
0.028779219456407354599
0.028834358222015941259
0.028861507898659131272
0.028870411687795968086
0.028871506188770129642
0.028864550319593937355
0.02882798314395547401
0.028697555799626656148
0.028467359769651933571
0.028257770696299866486
0.028080688981482970767
0.027937170395908803022
0.027832090984996938482
0.0277600266708279593
0.0277170138041099752
0.027695922116443831562
0.027690137884349284858
0.027691043775149078859
0.027696602435613622284
0.027716486167584167277
0.027779284475901420276
0.027858694625244456722
0.027919138055544894667
0.027959459102955098314
0.027981261038699172666
0.027991538706069317433
0.027994999659641688072
0.027995066028091881993
0.027991891308203755567
0.027979089063644334984
0.027951464859601173746
0.027925203739198583425
0.02790468562363397978
0.027891663115209026913
0.027886907484487816894
0.027886577346463357202
0.027890868118349811805
0.027902174905524709109
0.02792829458596917877
0.02799867090266513342
0.028095384471376154412
0.028181365267158264148
0.028253749928635909366
0.028311433093260479632
0.028353911180295506694
0.028381561032626380359
0.028397317246110068134
0.028406122257687696497
0.028408664634226973161
0.028407990935246634628
0.028402496451175932718
0.028385640835975098351
0.028349048250268880228
0.028312280489689735374
0.028282572937844634164
0.028263345596166774415
0.028252606130737070028
0.028249466802538279742
0.028249965839508707488
0.028255687484568078188
0.028276711738849515804
0.028340500874809038817
0.028426413905431813928
0.028504694033462559671
0.028574020515255989239
0.028634917240736097038
0.02868711321882068746
0.028729136436202878241
0.028760278953410052527
0.028780455463445462488
0.028790778226635074799
0.028794336451650987679
0.028794138356597390876
0.02879216158606391282
0.028788568809656012865
0.028783965248655608155
0.02877636837527839872
0.028760267638932454637
0.028741705970924177199
0.02872372612396353192
0.028707202171925412515
0.02869246016099628524
0.028679420360960352493
0.028668388870119469042
0.028660007837235074168
0.028654128339655332569
0.028650273658962357309
0.028647544875409450271
0.028647257138809886085
0.02864807597344193324
0.028651460424900639101
0.028661897267494438474
0.028692784057620820265
0.028741986463720947675
0.028793813542797253024
0.028847071657827048213
0.028899595048043180689
0.028948758957152515014
0.028992168429502605809
0.029028161106737719599
0.029055846727368841997
0.029075620170156295241
0.029089216352089358741
0.029097738217277780565
0.029102225210250000365
0.029104196799299712067
0.029105026716940044645
0.029104765216421180779
0.02910311262920630207
0.02909522942904014739
0.029074729153676884263
0.029038613007594794163
0.029009696559695520579
0.02897254260001377868
0.028943305892322645362
0.028905750666910871166
0.028877423478849167937
0.028841163166279829705
0.028814878738360062693
0.02878145645834093852
0.028758037336999248135
0.028727423340251287409
0.028706196506406655988
0.028677886670873085906
0.028657820397136705981
0.028631041863415293558
0.028612321770522450987
0.028586749017202293249
0.028569936189053030812
0.028547052021592439486
0.028533496056033100241
0.028514096089447767829
0.028503453243586326232
0.028486832182791591017
0.028477881926762857456
0.028462373627926754877
0.028453910730287503006
0.028438633478853447834
0.028430199339081918541
0.028415339247453614419
0.028407529940986466638
0.028392872013498875183
0.02838536703745839912
0.02837012950993317989
0.028361665815731594564
0.02834590921915624076
0.028336553279410339051
0.02832017502458247446
0.028310915554069032707
0.028294538390865826838
0.028285064061069148389
0.028268518492302663336
0.028258794815292028607
0.028242235840262405744
0.028232211242788889799
0.028215397615960265132
3.5412926817619259413e-05
5.0129968759476190227e-05
7.2059457455020216646e-05
0.00010291122297681732603
0.00012573824586036512875
0.00013706174090011641266
0.00014997510413233282908
0.00017939746125060479888
0.00023092771164432641441
0.00027943282508397730007
0.00030780738176516988071
0.0003239820717135435805
0.0003531253524886632353
0.00041244287958743566227
0.00046656131700965072871
0.00049479802082745658227
0.00052100807186411047037
0.00057940308813368571542
0.0006577252176892242402
0.00071726541963895522856
0.00075721709303472480544
0.00080393965552695892916
0.00087387546220288412485
0.0009520143348175286787
0.0010118619772634983908
0.0010434329043714051909
0.0010663348835592688802
0.0011114744265661616156
0.0012166625663314056816
0.001332310278076450933
0.0014109508890342667854
0.0014483052813654753981
0.0014712718597012035791
0.0015145408190429523673
0.0016153110421039994574
0.0017252661670918247906
0.0018263402583559458763
0.0019314526792197331435
0.0020405036534973763733
0.0021386254086197555545
0.0022113707257327684143
0.0022623660634716632849
0.002315236794371350413
0.0023929743684864323086
0.0024993473120337550246
0.002615845527621569154
0.0027145560282849897152
0.0027771945476239576558
0.0028076330106392732334
0.002829313634490804915
0.00286967481797600725
0.0029715382000883132363
0.0031395696616915084835
0.00329105989315658801
0.003406823202514485012
0.0034990442804103453166
0.0035926666605099761426
0.003704960372414060725
0.0038359767172465872656
0.0039721482241755461801
0.0040995593252886102995
0.0042126976846197832297
0.0043137386345409442154
0.0044076854178937427756
0.0045004963805247615374
0.0046019457232064726535
0.0047220366795838056642
0.0048588605451524210371
0.0049937560002902307496
0.0051017454135261677134
0.0051687351465048098423
0.0052036312705099792286
0.0052370847518233704099
0.0053065663281445527369
0.0054714229656788607517
0.0056705317763064318204
0.0058486223237243792697
0.0059985533123993756838
0.0061330129127523036123
0.0062649654913887482116
0.0063984895415904567695
0.0065296193522909242585
0.0066561315879377401863
0.0067819951039250394448
0.0069121002637276534458
0.0070470453020687086332
0.0071841541102355462728
0.007314047937918342554
0.0074227254098046223374
0.0075012731978229170438
0.0075552766636349548077
0.0076037610429558546987
0.0076790151746018000048
0.0078145327911835985729
0.0080276462378830962946
0.0083096504054807427547
0.0086250596383168551262
0.0089224730594653460514
0.0091577372018341925836
0.0093118173712769276157
0.0093929324768136489981
0.0094270459648020960702
0.0094439064774868245605
0.0094681299811650680709
0.0095237380926636149708
0.0096515579467899032667
0.0098033424370717534013
0.0099514033738632417386
0.010084149299494762908
0.010192944744963142178
0.010270927884448284584
0.010315948413102462092
0.010336669478172869074
0.010350716876386218193
0.010377680973009641846
0.0104550840714236256
0.010715004030991121323
0.011136948210788946007
0.011470960722372917223
0.01169527997058823765
0.011831792866618787846
0.011921297222438443503
0.012006089136243050866
0.01211190026669534299
0.0122456749850630639
0.012400619895790882322
0.012563442803864502059
0.012717190669387973614
0.012847887794710681486
0.012945045392794443315
0.013007730081331037725
0.013040638229551872532
0.013056096374001478766
0.01306913753639512947
0.013094981782115031055
0.013160929868306454546
0.013276285589272261711
0.013399004879341517085
0.013513243283612681386
0.013615487315590781708
0.013711091600737648766
0.013812145811937338175
0.013936830484713952014
0.014103230862159974943
0.014318508169202085259
0.01458429400613432507
0.014891369950534047092
0.01522766808154737278
0.015581247853108151288
0.015937509104797454446
0.016281900482631981447
0.016593483967448179744
0.016839940282041103436
0.016996694346217523092
0.017060862573088420024
0.017067436812811562913
0.017039457383465288209
0.016917366109858555934
0.016818221612561870537
0.016795612380666687102
0.016811176585633712255
0.016923049990824667876
0.017343936312352020018
0.017901776269061715069
0.018308968255828637905
0.018580891462762049587
0.018752613712164092896
0.018860941091718892021
0.018933967167125250602
0.018986796690544923555
0.019028725451738320168
0.019066865041654272594
0.019102387474448371402
0.019130334010852637072
0.019149760987396399065
0.019156935568735856956
0.019155532687119190827
0.019131634844511510862
0.019026680288785291495
0.018889400638658532944
0.018809106967782245751
0.018781402920117842154
0.018782124696802175723
0.01881421608408324897
0.01895226726139777329
0.01929889146547623946
0.019653766109604911549
0.019990967773872356933
0.020314630046437891914
0.024205070288666669098
0.023914900933066387395
0.023692682484474068133
0.023541336799816466041
0.023455787135952664568
0.023425477893222693831
0.02342471072619883854
0.023450423679662230764
0.023585267283634758079
0.024072399968295670608
0.024824331280976882214
0.025463620787448081745
0.025990041047499884419
0.026422893732823068969
0.026780988766023819392
0.027073760352070822682
0.02730225279532913496
0.027462617895068430762
0.027554024280408137559
0.02758766286878299237
0.027588401451788879121
0.027566072154567019398
0.027453853578127223461
0.027064448629093434961
0.026565954789156055738
0.026219936729681793397
0.026033172384932454224
0.025968694960548266426
0.02596917218127477861
0.026033230802707942736
0.026340133360272872248
0.026995376607409957148
0.027532380904375319819
0.02792666449486155833
0.028207448816978869521
0.028412623468661499931
0.028575991072758710754
0.02872600489951849731
0.028876505553122894937
0.029030835491870448511
0.029183474692589580352
0.029321603205107647783
0.02942808047111982947
0.029491763547708212817
0.02951508464075944943
0.02951401548686291218
0.02947677073304470069
0.029289312419269023652
0.028663866418769227279
0.027925466557245141874
0.027416728489083181525
0.027140714429426018861
0.027051024543584187981
0.02705065832196763484
0.02713041599659734085
0.027509121990542746011
0.028596042032850096243
0.029725095463002032536
0.030629543529015684084
0.031371866240531509629
0.032040355585016576379
0.032701598415912094819
0.033371742373449198027
0.033990484696111211704
0.034477600074458360224
0.034763789103728702512
0.034858859272982191391
0.034847455833838129891
0.034681872848125593067
0.033932763651289311879
0.032727143793044796705
0.031949938785762965754
0.031597046915410438583
0.031522083539466720647
0.031555568985822540773
0.031787822348171512754
0.032449157313850091056
0.033006612090337256182
0.033347492472292586396
0.033541303532711792823
0.033657329595804141853
0.033738059556251087656
0.0337978118534793745
0.033829054951178959276
0.033837498419101129377
0.033827318202192244168
0.033750258614030824444
0.033426163426355834374
0.032557246841399899162
0.031706072288432092521
0.031068458032998499951
0.030641943808158669804
0.030395586471963692565
0.03028010708624227082
0.03024333351596548633
0.030239258574212252162
0.030251053799280981649
0.03031223337426745823
0.030405201591349864665
0.030466992800574292655
0.030500565527240501573
0.030513380308418543846
0.030516478539827120164
0.030513166195247794915
0.030489209085723070758
0.030394217874547647257
0.030170425970772022511
0.029949885503446883883
0.029758894628912114372
0.029602534791311137935
0.029478872452230450718
0.029391330839521313811
0.029332769948985915748
0.029298337900502655767
0.029281723277165667974
0.029277208349751195765
0.029277935239972737586
0.029282530243596137376
0.029298105270488938173
0.029344911550359672331
0.029400649392445511038
0.029441666145255462189
0.029467102939898272285
0.029479824458207546517
0.029485755731221498926
0.029486916678593700497
0.029486027278362136883
0.029481213998622690653
0.029465928599108483915
0.029443206767232839305
0.029423042098704246111
0.029407648787182643496
0.029398529154567920596
0.029395773253796282642
0.029396810507635016269
0.029402560277328512045
0.029415135111569165605
0.029443966683667485706
0.029520498429492822434
0.029619919399132436932
0.029707073326376950279
0.029778435892900086135
0.029833918449107234977
0.029872328524351593471
0.029895169795254115247
0.029908301201100873784
0.029913727505698550074
0.029914876138451226145
0.029912375493510032914
0.029901972108524698529
0.029871903339369541147
0.029833126249293299287
0.029799219548457388934
0.029773707028180499551
0.029757982610785525118
0.029750320043613862758
0.029748431792994415451
0.029749589671745728381
0.029757082524480327895
0.029782724442960796518
0.029857246984930647937
0.02995025174025625625
0.03003124807157361506
0.030099069071450011703
0.030153763734458934737
0.030195039650672848841
0.030224286710185409993
0.030242389405103389799
0.030250961810239337252
0.030253111851996600939
0.030252068263839311524
0.030249095789215387636
0.030244931651017884638
0.030240321780091349718
0.030234502190221806961
0.030227498632586301264
0.03021998712383964017
0.030212636617604551881
0.030205686577212991634
0.030199131555095428542
0.030193317629642495159
0.030188541398054921649
0.030184844749368052591
0.030182141065331465068
0.030180185395953715993
0.030179272186049443255
0.030179611617083459268
0.030181343739445733176
0.030186120267850349852
0.030198797980167481347
0.030226187829587553013
0.030259921979679679782
0.030300039235623240502
0.030345505895877533664
0.030394073761272323575
0.030443107511539353044
0.030489162481764323087
0.030529935082491004711
0.030563406061913954426
0.030587915426932191232
0.03060524073120551164
0.030616482722359183305
0.030623075171607901102
0.030626065863902773162
0.030627084439977979996
0.030626966733953004535
0.030626005241210191993
0.030622684876840684104
0.030609619051759927311
0.03058838661631277378
0.030555284478995727027
0.030531519102075330846
0.030497999648562514052
0.030473865614911825606
0.030439650074011937592
0.030415510751498894132
0.030381417798474686515
0.030358345179210616954
0.030325838208097720405
0.030304799189399406201
0.030274185807620524608
0.030254306109681654291
0.030224809930903488026
0.030204770462135915182
0.030175320103887865592
0.030155334093489933461
0.030126190024464656603
0.030107570343421138914
0.030080898022989219914
0.030065512396063750339
0.030042343182107598965
0.030029747186778622814
0.030009082919446712634
0.029997878856418781768
0.029978018887462043462
0.029967172188441807551
0.029947553827857385095
0.029936786181388091999
0.029917658372008663209
0.029907655477662071358
0.029888719921911617583
0.029879016576269068484
0.029859501410303381647
0.029849099226663872164
0.029829084029913913861
0.029817716075238032136
0.029797064035181324709
0.029785524145358455161
0.02976470920355977004
0.029752991617540951869
0.029732095078159301998
0.029720127402844083442
0.029699268052690058067
0.029687160967378670856
0.029666533047978727033
3.8281575457801908719e-05
5.2042240337206686701e-05
6.3966923176426610811e-05
8.864515583437727875e-05
0.00012292938167299643213
0.00014999259153944632895
0.00016474848148944091705
0.00017894721622310787905
0.00020955338302926451938
0.00026575072096962881448
0.00032167890401531973451
0.00035778996236669529871
0.0003768453646340686543
0.00040251256436494328543
0.00045601402135141670289
0.0005248821051498419113
0.00058378313218402548904
0.00061773637291897501994
0.00064101221285495018579
0.00068801424820208272309
0.00077869432505207479729
0.00084782913308111907194
0.00089183416861997864312
0.00094375543115517894835
0.0010143633747962033011
0.0010847221155719025121
0.0011478643401612528569
0.0012235506075346576794
0.0013205256792245014235
0.0014112042303057524377
0.0014678400519466557311
0.0014991552221087184153
0.0015408740367222387678
0.0016272462895943163533
0.0017626632541992216015
0.0019206356641385323274
0.0020553934484678639504
0.0021329945749271619036
0.0021661512821940422796
0.0022056100254895277986
0.0022909777476115169952
0.0023835830217090732235
0.002448479949950570396
0.0025002187291025641455
0.0025790694661450663631
0.0027013563013367609088
0.0028383953379372936672
0.0029483660989798095992
0.0030100320474820735535
0.0030374045106305353099
0.0030660358572802567066
0.0031296458016474206637
0.003236450963162007706
0.0033656977050291803956
0.0035224655529923886571
0.0037058763435734902794
0.0038967106789326196037
0.0040643252759707034633
0.0041883003503555595037
0.0042733911947150015828
0.0043441095421177617839
0.0044255351753980220336
0.0045291474659648160717
0.0046514140256544581412
0.004784249375439119864
0.0049213470889869753017
0.0050584909804256466062
0.0051864846880983932545
0.0052924061624695407924
0.0053665471472578891998
0.0054081667486135624745
0.005430291732801623486
0.0054567253948085009396
0.0055150985481342224351
0.0056783055201353269809
0.0059626945979229760419
0.0062290385778936245564
0.0064382784764402010633
0.0065806826029516322235
0.0066789303424910750201
0.0067722310139800116768
0.0068887203389397227288
0.0070327299695118333789
0.0071905030378251249754
0.0073445779752134227394
0.0074847865560761428147
0.0076073155996146659893
0.0077111451223395291107
0.0077956571534979974061
0.0078629013556664444778
0.007927326087494373022
0.0080143314636640945042
0.0081533472293669195796
0.0083625338206497930316
0.0086350679291180894998
0.0089355981993189548956
0.0092170158096123149666
0.009439174810109900865
0.0095834598698597700528
0.009657853143706304766
0.0096921802617157670062
0.0097277911888253871392
0.009803093576389563385
0.0099328828337566857365
0.010096720874969610654
0.010270434759232888525
0.010429410963037720819
0.010557712439010324967
0.010649639092624398409
0.010708238601737453399
0.01074020608226847022
0.010756732369370107169
0.010771043337215773644
0.010798430655019912797
0.010871702875172885999
0.011098611718258523384
0.011434763796577466013
0.011720301735677122329
0.011937623694903476412
0.012096944214385764449
0.012227741024367216882
0.012364634569674846573
0.012529969235088710827
0.012727056116740067745
0.012941733305956774208
0.013153409076402059613
0.013341903360430687475
0.013495514801273719371
0.013610958596770646178
0.013690585317256080689
0.013740357731112835121
0.013767549881041812876
0.01377838849444873448
0.013780955310777148054
0.013781351264319865318
0.013784595149186007479
0.013802128446431487577
0.013873577172848048158
0.014115772238471048852
0.014488382212756048192
0.014802219753924131598
0.015020812753051332802
0.015147563335995558806
0.015226600502085858857
0.01532490331411948993
0.015489360756670835992
0.015744245738207245794
0.016094127470613697056
0.016518025447978024883
0.016982438258119722518
0.017438417532093901385
0.017825931954531585438
0.01809442188414343497
0.018221737886582774213
0.018248455943506460691
0.018229665945178379072
0.018101226174624968773
0.017883816284212802894
0.017788904604416760913
0.01778142692721297255
0.017835006758070807986
0.018121377867101988446
0.018761053596100776136
0.019237527611117778703
0.019519354657958981614
0.019663270153243612298
0.019736918667259573112
0.019793681992216687754
0.019859120073166439124
0.019937645022922494131
0.020023236445451585153
0.02010147800901120399
0.020158906397035394886
0.020193672240515703892
0.020205937828226633313
0.020205836006878988287
0.02018807421292709986
0.020093099318715799961
0.019886376493309432245
0.019739314043270478338
0.019665072895463535374
0.01964887199541573426
0.019659255874864077496
0.019737599430392094996
0.020027542305784552801
0.020446306002782577149
0.020802458325715707244
0.021123731616717669746
0.0214240669602538715
0.025314510622555047581
0.025019758579413711036
0.024828158985575794065
0.0247293455887597248
0.024698906252177015019
0.024702150565434535107
0.02474830777077104832
0.024956875009469435545
0.025559099492344194982
0.026214971306525697292
0.026752888987308303531
0.027187620817929688405
0.027551732250419361248
0.027889265970774897857
0.02822158022467549307
0.028551452889353488157
0.028858623043357491122
0.029108037987199759239
0.029274939771120958576
0.029355573179052490973
0.029371016097048979754
0.029357011424634871233
0.029264155632859518291
0.028886246459124607228
0.02818269628611603031
0.027641599503401958343
0.027303082530743524869
0.027144771651055353556
0.027105435071937210301
0.027117438202805110165
0.027220558619085271496
0.027625146178747360393
0.028252093397569177924
0.028771091149488121907
0.029186331525637689011
0.029518224980939745256
0.029787030781712242611
0.030014975671593665391
0.030216066111032384434
0.030397549986580920528
0.030560569660509743356
0.030697026963561663271
0.030796724461212565682
0.030850362416386188646
0.030866704467162851822
0.030861154010111805507
0.030804216801940051407
0.030544662724982626217
0.029849894673152611857
0.029222361271783028891
0.028825789113628454835
0.028649996388529087865
0.028617517365716597932
0.028653270247440940782
0.028889354587095090326
0.029819750023823060614
0.031338612416280088591
0.032503354146041489592
0.033294676812628730411
0.033813185845152006481
0.034209854261187090663
0.034614232850558611376
0.035090390491555122077
0.035598919822426411397
0.036051783428411351973
0.036347660765480634126
0.036461541852205944791
0.036458876672953992315
0.036323322865085001798
0.03565836380752979845
0.034425057446058754396
0.033611695448819901844
0.033244076458951776765
0.033168770251005952332
0.033207815244245049435
0.033475509075764062206
0.034241311838617297103
0.034880842846013754288
0.035250136329616370279
0.035433901213963205079
0.035516977675648896129
0.035562113099947813277
0.035591544497255843404
0.03560775594165551533
0.035610712699270213877
0.03559746142226703769
0.035512891279314291737
0.035171609787664329105
0.034298378501510094762
0.03346228079990030968
0.032826412820163193562
0.032390383435573877335
0.032126207127624213655
0.031988676123453060884
0.031930582093797579835
0.031912839978771818938
0.031909830792957165346
0.031914079024665108208
0.031939357883481657441
0.031985365744646040986
0.032020720539484105738
0.032042742470020417478
0.032053366072007212495
0.032056887647952385378
0.032053776643117523615
0.032028950108358940352
0.031927992129219928685
0.031703418681398157219
0.031498550666761014616
0.031333322218516194979
0.031208842825732236587
0.031120776185711095108
0.03106083214262607764
0.031020403560775899887
0.030990931426809913141
0.030969461079958831434
0.030953305456021724257
0.030942242832857347334
0.03093590146724177134
0.030934133944488250573
0.030934887710076516137
0.030938375704104244257
0.030950442741620030895
0.03097636082861421683
0.030998269260787855023
0.031013232430614268154
0.03102220020159515354
0.031027116807119888703
0.031029731088016331703
0.031031631846531383678
0.031034461567304320873
0.031038438821510094118
0.031047456233645451262
0.031064198245222496286
0.031087370502569783987