/*--------------------------------*- C++ -*----------------------------------*\
  =========                 |
  \\      /  F ield         | OpenFOAM: The Open Source CFD Toolbox
   \\    /   O peration     | Website:  https://openfoam.org
    \\  /    A nd           | Version:  12
     \\/     M anipulation  |
\*---------------------------------------------------------------------------*/
FoamFile
{
    format      ascii;
    class       volScalarField;
    location    "0.0105";
    object      k_0;
}
// * * * * * * * * * * * * * * * * * * * * * * * * * * * * * * * * * * * * * //

dimensions      [0 2 -2 0 0 0 0];

internalField   nonuniform List<scalar> 
75962
(
3.4758679694242331057e-05
4.3766545135359474945e-05
5.8098034258110310419e-05
9.0232539117459170598e-05
0.00011689560500990274321
0.00012942878549805807219
0.00014422434484922942006
0.00017923333640700722788
0.00022336858776831575537
0.00025380750435981903673
0.00027475087558307933122
0.00030401632621886300967
0.00034789035898119178257
0.00039532944186362466458
0.00043060868401892431418
0.00045423142664124808218
0.00048721658940700470798
0.00055360485091502157056
0.00065562565808449158912
0.00075942928857267589637
0.00082014980774387335853
0.00085066595160667791194
0.00088559997787443674178
0.00092586131898256967838
0.00095294680100011799288
0.0009749029728294084313
0.0010168810815477087681
0.0011007368134450033585
0.0012117475900942599118
0.0013146432536534969661
0.0013827271795750016147
0.0014149077153169963613
0.001430917987100121776
0.0014562274005981477951
0.0015256986863601475646
0.0016691479089370098079
0.0017818377383667658234
0.0018638989254798898898
0.0019366876827046433391
0.002000472125918000086
0.00204603245835210815
0.0020846529820704902403
0.002151527300456481176
0.0022665596855499471271
0.0024060544753778654627
0.0025223691713173825892
0.0025927808478867328708
0.0026347370984523103832
0.0026848601825316883995
0.0027625612945193825896
0.0028565743964958740728
0.0029384463061318780337
0.0029986002987957552021
0.0030609282152456829089
0.0031549679006520336966
0.0032855167802876973464
0.0034285536046154978414
0.003552408153448361177
0.0036437740605022653217
0.0037184482950162064084
0.0038099780041078818923
0.0039386128616244750825
0.0040906421121280562084
0.0042318221575091451506
0.0043381814740368349406
0.0044142995815865159262
0.0044830177471878694673
0.0045604184075654433106
0.0046457194371472025282
0.0047291495139687809296
0.0048014140259393170429
0.0048625162944710221061
0.00492293444662557627
0.0050097352584582005575
0.0051453386762629416476
0.0053305076397499612934
0.0055521442569999952463
0.0057866332033735074988
0.0060013463543142301498
0.0061648947266199436573
0.0062697582888318744918
0.0063347940286517115741
0.00638987943333782938
0.0064576608822309033986
0.0065462982335650924878
0.0066535603272549516396
0.0067773555872774780481
0.0069209701383961446178
0.0070815288792575358315
0.0072411109449728866538
0.0073740214530510338892
0.0074652378558091982488
0.0075215018267562128509
0.0075698894046269732047
0.0076451570307663309703
0.0077696329414656869344
0.0079438900220081855308
0.0081464292795253665652
0.0083441050910553777459
0.0085071450459279981948
0.0086235287228641713947
0.0087006901954231087581
0.0087619408237023122671
0.0088319010006603065194
0.0089297004523869582399
0.009061631123112218883
0.0092231586860177985215
0.009400335352827526858
0.0095737656387130300878
0.0097228724227202151936
0.0098311896253292230252
0.0098929115371219102093
0.0099174031529155950992
0.0099268767096592110122
0.009942162327982426856
0.0099888382336103826581
0.010155202775461365586
0.010488267749218044278
0.010764549638406060647
0.010958263915334807287
0.01108298443237827266
0.011168826916280084546
0.01124985879220066938
0.01135051884122587583
0.011482105989512558092
0.011642836118660779277
0.01182025989170771077
0.011997707952488187097
0.012158243752786873637
0.012286671315547181144
0.012376349653217001354
0.012428448713144104459
0.012453314404747497721
0.012471253779824165164
0.01250429617309128244
0.012585086661861371801
0.012735525515413131589
0.012901454056479126631
0.013054967019290715513
0.013177222989699775846
0.013264263301417592369
0.013326159437558235052
0.013385923294342393433
0.013472273456952654422
0.013606069466527476522
0.013801166502632678662
0.014056842002376645703
0.014365425098130907289
0.014718182678171223832
0.015104116880006289089
0.015507540779657384006
0.015894523312001463539
0.016212444532369665179
0.016418589651383746347
0.016504068456067028103
0.016513590271302735352
0.016481678832456318762
0.01633214240535034098
0.016185461669050028866
0.016136374079433177253
0.01613722033063303557
0.016183928208433881468
0.016391112012292863992
0.016742823894724295081
0.0170222333509189791
0.017239484842376900237
0.017413273217361833339
0.017560230299750203414
0.017697934562328748037
0.01783256549559861584
0.017968524391568471699
0.018104375983012292034
0.018231695243599053274
0.018336057099050756536
0.018402151274628568423
0.018430230079299256968
0.018432873189930597951
0.018414501355675499256
0.018317496994697059914
0.018165349957293262795
0.018076769087336488212
0.018045684695343643111
0.018045706850037254027
0.018071892817171295031
0.018181228077241054497
0.018411932717383488328
0.018652251540196791713
0.018907928281036007895
0.022900246572377831733
0.022705471141588710882
0.02258011030520807455
0.02251453592528300518
0.022495192846489410476
0.022498146523356125914
0.022537328219127964607
0.022714619994023368954
0.023302352558140324024
0.024074286704568403916
0.024699551310192788267
0.025174726870518047972
0.025515233003486851443
0.025746828059722986354
0.025897255622926704244
0.025988222827707001955
0.026035697809327160851
0.026052048230515548882
0.026052410983343758655
0.02604051004617954912
0.02598278232854832337
0.025767051460178592298
0.025297089304070548288
0.024904466843110911051
0.024647547670073148562
0.024525251579665036106
0.024497167237934092815
0.024514253912945233038
0.024643112230917082334
0.025164844703566332379
0.026012583318792879827
0.026670340178705190248
0.027130698760581238582
0.027424532869695317228
0.027600981527483071237
0.027705850555953776687
0.027777609045608303573
0.027841649730632283405
0.027908318970107828805
0.027979493669322366006
0.028044356023022305735
0.028094101625855953663
0.028119139381120351884
0.028124125011989044992
0.028113390609504618906
0.028037972388460175033
0.027722617935250208621
0.026974315250361029228
0.026331195830842722694
0.025904042740242577691
0.025689696886516864838
0.025631680354107420905
0.025643929778240367318
0.025771948039119405016
0.026313569855576989659
0.027482003329786407891
0.028509596864876928651
0.029350516441438444931
0.030055107308691892537
0.030690251965218458968
0.031293392092248926983
0.031860133019134616317
0.032342316636011420039
0.032684544127946461856
0.032857823195528677862
0.032894753799882457679
0.032858997238749645953
0.032608970051922599176
0.031699867859125874237
0.030668076784250326849
0.030063949398462970486
0.02982644273122210879
0.029801911939660426232
0.029880406598920671718
0.030301108355978691178
0.031097317710812266006
0.031629088889221272651
0.03190850568530104181
0.032020586853304604247
0.032049768805107799186
0.032052768732098529947
0.032052543294694688103
0.032051953720973733186
0.032045598229139563018
0.032005792054257575785
0.031839474915121464271
0.031260141462382540212
0.030364768516438718493
0.029625668655256384709
0.029080213557470251107
0.028723890539144498329
0.028526709767795203204
0.028442289335259531013
0.028421114421987352106
0.028422768078829697275
0.0284503082819017733
0.028557691425604790625
0.028688200342520876751
0.028779489612027187723
0.028834470248666407843
0.028861505912694620374
0.028870340564068942141
0.02887140113416156173
0.028864349511056989345
0.028827485519109432438
0.028696289988480845612
0.028466021653326643859
0.028256570446666254282
0.028079674334202588126
0.027936367582072661048
0.027831501837053126275
0.027759621955090393874
0.02771675853232934833
0.027695773039838680885
0.027690046792608381115
0.027690974532798021124
0.027696570173162460282
0.027716570474446582117
0.027779613252917726568
0.027858938329752884477
0.027919257642384610191
0.027959455186198661769
0.027981158061026922129
0.027991371091879831134
0.027994792442997604859
0.027994837763826673632
0.027991615976674471405
0.027978715206129042142
0.027951057129545875402
0.027924827686566684737
0.027904370199911331801
0.027891434026144832498
0.02788677151321415984
0.027886518868757436546
0.027890910375288388567
0.027902297284960821816
0.027928543321649172693
0.027999182113244622944
0.028095847915688580698
0.028181713728814998532
0.028253979356940336909
0.02831155752399613923
0.028353949515864913106
0.028381535372243180126
0.028397249736391246
0.028406018523958218719
0.028408522301413881989
0.028407806885350703197
0.028402230168603451177
0.028385248055276868229
0.028348589599016031648
0.028311853971997178597
0.028282213897212464537
0.028263064657248895134
0.028252394619191815994
0.028249305834229753581
0.028249835624942896961
0.028255627793214256605
0.028276812100926713295
0.028340898048439814444
0.028426808305112509501
0.028505051457539447302
0.028574324911126231658
0.028635152134730501583
0.028687256672279375785
0.028729170115904794497
0.028760198666187050676
0.028780274400982894245
0.028790529108829940319
0.028794061844728754962
0.0287938763656892735
0.028791918345923126626
0.028788362527543878006
0.028783783005201946797
0.028776184407780881769
0.028760068009455030252
0.028741520308569648567
0.028723560222706143868
0.028707057047229211227
0.028692334171175479934
0.028679309854409012343
0.028668292574175489873
0.028659924549412966327
0.028654055764790704181
0.028650210176439792203
0.028647495067902928323
0.02864722082715644158
0.028648055863271078281
0.028651467332557207374
0.028661966573697867516
0.028693001694535702484
0.028742215765943868871
0.028794031152166228715
0.028847269623374149211
0.028899764666482332526
0.028948893027161564512
0.028992261117034741347
0.029028208079392065627
0.029055847528084918774
0.029075580861184405213
0.029089145521948286954
0.029097643353150248052
0.029102116497061229772
0.029104087101522065767
0.029104925608912743384
0.029104675471104589357
0.029103024252412047768
0.029095088761952429823
0.029074500318266398996
0.029038381149531933972
0.029009469586541658526
0.028972324453740018468
0.02894309953560878293
0.028905560895664303422
0.028877250488278782131
0.028841003466930529436
0.028814725246317635793
0.028781296938539584207
0.028757858549169873497
0.028727211250453188462
0.02870594426989411807
0.02867758984412853776
0.028657487826078589799
0.028630686786328362475
0.028611961990549040352
0.028586404112357150648
0.028569622831811004871
0.028546780279560177856
0.028533268575436976366
0.028513907245636092858
0.028503294634861991302
0.028486689761038162111
0.028477744351346413049
0.028462232423399295295
0.028453762682795199351
0.028438476827826679461
0.028430035295192234573
0.028415169275599179433
0.028407354390790225812
0.028392691779518534206
0.028385180115714184201
0.028369932261746277913
0.028361463049961063015
0.028345700175796215842
0.028336340210121074845
0.028319962131803027433
0.028310706047964619841
0.028294335221588799711
0.028284870791919151933
0.028268336243466165442
0.028258624051650318987
0.028242074033713638476
0.02823205593941108954
0.02821524287222008931
3.5451603669639561564e-05
5.0135931743482824196e-05
7.2089865887495609489e-05
0.00010292422307976758209
0.00012569623017439512545
0.00013700196739709703852
0.00014995280320438217239
0.00017944621159392647853
0.00023099344955580943754
0.00027945244998090054342
0.00030776139612341064022
0.00032393163271967646962
0.00035314253513084857029
0.00041249743993649771795
0.00046654929573143822047
0.00049472822347206696619
0.0005209844438053293442
0.00057948514782275709935
0.00065778959430014142043
0.00071725417218914105238
0.00075717156240325954753
0.00080393066721957322056
0.00087390229996281247864
0.00095202074999638436944
0.0010117946153922858458
0.001043306567134992752
0.0010662298158130986345
0.001111477773610855535
0.0012168271769582711395
0.0013324013180473213199
0.0014109102945126272052
0.0014481698085124976392
0.0014711388742767402861
0.001514502970404528687
0.0016154304221143137195
0.0017253657854117145868
0.0018264263413412449005
0.0019315370764116991144
0.0020405569086793290574
0.0021386075262736343149
0.0022112700806004997878
0.0022622372136098280182
0.0023151660431459013603
0.0023930033855450237416
0.0024994359985590938571
0.0026158986752181645485
0.0027144932053839122485
0.0027770108156600463445
0.0028073934464280924511
0.0028291058604720344984
0.0028695695245153458527
0.0029717161942324201926
0.0031397835616303274714
0.0032911764790752289639
0.0034068366801432445681
0.0034990206663694416525
0.0035926718685493062334
0.0037050090818506217598
0.0038360419987777736976
0.0039722020586068790965
0.0040995923030001700862
0.0042127105749378227634
0.0043137304958886348374
0.0044076533786457693445
0.0045004472507071601947
0.004601921533409777422
0.0047220847514199857861
0.0048589587025101195483
0.0049938087890720296927
0.0051016598203778218065
0.0051684937997445220409
0.0052033187904374691296
0.0052368373779080436628
0.0053065313492902744033
0.0054717048452687881005
0.0056707663879461307765
0.0058487421964405457778
0.0059985897423713834681
0.0061330340016025703884
0.006265005035596124712
0.0063985358789653851846
0.0065296481525344415506
0.006656138228728262704
0.0067819915111582930109
0.0069120991836452106913
0.0070470562630218676337
0.0071841656716029739238
0.0073140124648781489405
0.0074225865742225359545
0.0075010143248540120386
0.0075549427515771566677
0.0076034563634562986681
0.0076788712393416362276
0.0078146463641360023461
0.0080280296760665698086
0.0083102287792514127618
0.0086256879080806748289
0.0089229838630107520536
0.0091580025877560800734
0.0093117911774484654619
0.0093926608022589213459
0.0094266373791488475981
0.0094434820760795016442
0.0094677780726672433609
0.0095235737840298449741
0.0096515941101953262732
0.0098033456914034169255
0.009951345706635941063
0.01008402734111797823
0.010192751623633374003
0.010270644592962599809
0.010315562817515312732
0.010336211809980209303
0.010350255201216131476
0.010377292519721121808
0.010455037059459800289
0.010715968948911332517
0.011137839087122619955
0.011471458289827103638
0.011695391637350028083
0.011831654886633432081
0.011921082401219867605
0.01200592347482434645
0.012111832931398398838
0.012245695699239356538
0.01240069083383968894
0.012563514066965052879
0.0127172104957588121
0.01284781196017500092
0.012944848681996547896
0.013007417571115368823
0.013040237306046247034
0.013055655182144840221
0.013068713785416812348
0.013094639857287334803
0.013160830875540534268
0.013276269986839112427
0.013398963119431353541
0.013513124269251769807
0.013615313764803106678
0.013710939236539652561
0.013812106456388719561
0.013936972406706871902
0.01410356764164322034
0.014319022867771565369
0.014584954710074418335
0.01489213751877581024
0.015228510872127913947
0.015582125911057934445
0.015938371505586784033
0.016282678937652755868
0.016594076758587050086
0.01684024021347990327
0.01699665023641194761
0.01706053522287736407
0.017066995855385996145
0.017038789097510536469
0.016916357814327868947
0.01681756162169311189
0.016795160348028026487
0.01681089674000170453
0.016923486150885611035
0.017345905456836972769
0.017903276974844981734
0.018309854454803348167
0.018581295251570636995
0.018752713718415140592
0.018860877468279212132
0.018933806525429690282
0.018986552043000835821
0.019028402838135553832
0.019066480077564628565
0.019101961579269174929
0.019129897580175952293
0.019149326728420970611
0.019156495640649102291
0.019155069920636851738
0.01913096537581238446
0.019025545677237028219
0.018888426483008435158
0.018808384799272867549
0.018780902227115647829
0.018781748162430007831
0.018814139028049597924
0.01895295726485447807
0.019300131488933607027
0.019654754340270096796
0.019991807578580579607
0.020315366752212508927
0.024203241559595110172
0.023913321548259220545
0.023691393227913228048
0.023540346105513202529
0.023455069438599100012
0.023424952927657120144
0.023424252306347884134
0.023450197188159039446
0.02358591271806867104
0.024075235887802182849
0.024827040798939960936
0.025465852589043210669
0.025991835980967360753
0.026424325962595897332
0.026782104878313332808
0.027074568806378963848
0.027302738830780090562
0.027462768772303507853
0.027553865556491270034
0.027587282886591898284
0.027587945132850882207
0.027565423016968449571
0.027452509787772513827
0.027061652705337092828
0.026563681040347220802
0.026218421126670152232
0.026032339108150448492
0.025968314925233524498
0.025968951404388259524
0.026033581237515032031
0.026342423082048049138
0.026997924248757406568
0.027534225433740958794
0.027927921979245980827
0.028208296823265373299
0.028413243923269316388
0.028576533470798973907
0.028726557297711001471
0.028877085628091117564
0.029031411469642845469
0.029183977253297223309
0.029321943603959711722
0.02942818902142639928
0.029491628730262210711
0.02951476969766879746
0.02951362347378187409
0.029476040515348567866
0.029287322502554880704
0.028659641410147887464
0.027922145286738878078
0.027414546961248970752
0.027139568802779158452
0.027050561275272534678
0.027050414761823484561
0.027130938481069271501
0.027512155116379395647
0.028601929354164307151
0.029729749396361283831
0.030633253845393688258
0.031374992647284612179
0.032043274538198163182
0.032704508364957571298
0.033374529893771334721
0.033992799773212865888
0.034479076742192284188
0.034764293622998883315
0.034858675115002374367
0.034846975282253125905
0.034680022859645144584
0.033926777169587925276
0.032722223326831292867
0.031947203114984508432
0.031596083605611550993
0.031521967320927095357
0.03155588570544338306
0.031789838149422634805
0.032452446244695419553
0.033008577844280274916
0.033348552878284441758
0.033541838926621790617
0.033657634061440247497
0.033738275407760504043
0.033797946872579802402
0.033829093108672693424
0.033837481773534114349
0.03382718704657855513
0.033749501528117134552
0.033423213219432292009
0.032552255708145669266
0.031702186794823970784
0.03106562085127569095
0.030640079032177264945
0.03039449745688117821
0.030279544039437961828
0.030243054404823804804
0.030239078222063314749
0.030251013843176337986
0.030312576697582804819
0.030405466122632413689
0.030467124476482813217
0.03050059197788749718
0.030513347256486248599
0.030516424064337712568
0.030513069996851476667
0.030488902226477473945
0.030393251517250651633
0.030169057283531110908
0.029948666719988043666
0.02975783534165990854
0.029601655018109292866
0.02947818262460916855
0.029390824741791356928
0.029332411082444793254
0.029298092681716968871
0.029281557905260661295
0.029277088075231813558
0.029277836838861474866
0.029282470856727409181
0.029298143850478783334
0.02934512037192373024
0.029400790388041615764
0.029441707264071893813
0.029467044194585949313
0.029479688083049203351
0.029485565717103603967
0.029486691806744593641
0.029485774784119411079
0.029480913399087378679
0.029465550649496019542
0.029442831573097971026
0.029422702200651993515
0.029407373471169680201
0.029398339597573389104
0.029395668888946461378
0.029396780276167124718
0.029402616611338170532
0.029415259017019919352
0.029444223873631197169
0.029521010871154964444
0.029620361376242083928
0.029707388760081703677
0.029778627114691789274
0.029834003068390249624
0.029872326701411044958
0.029895110533013118798
0.029908202340715617229
0.029913588646518104314
0.029914697472085631513
0.029912130497587566952
0.029901618676206189601
0.029871412002022996318
0.029832646188883676919
0.029798792044647300775
0.029773358957945951497
0.02975771623584592615
0.029750119339304971489
0.029748271643172351925
0.029749461495091385904
0.029757031408691642788
0.029782859378173980047
0.029857694596680722787
0.029950675707422911437
0.030031617136685343633
0.030099364187098930079
0.030153961955810427292
0.030195122737033293359
0.030224247920299970871
0.030242235660860077723
0.030250721249670486923
0.030252830795258221774
0.030251781003044306284
0.030248831510418378032
0.03024470946418656575
0.030240137494676241209
0.030234343087696693986
0.030227354482080043968
0.03021985204251708898
0.030212508314619170025
0.030205564914024631007
0.030199018805027493667
0.030193216799445032894
0.030188453251442131514
0.030184767807826855257
0.030182072530144272993
0.030180123902903165101
0.030179218856921097291
0.030179568556917141242
0.030181319026526650523
0.030186125809691644745
0.030198878167313043808
0.030226325886241640906
0.030260079670881064734
0.030300214654648889578
0.030345688011757129127
0.030394250237522922597
0.030443265195564648412
0.030489289416128991655
0.030530021606893709835
0.030563441513258630261
0.030587898145725347238
0.030605177818175663407
0.030616382667167346687
0.030622949969087636529
0.030625930619541847505
0.03062695443204883905
0.030626853358545636646
0.030625906640336576781
0.030622587609788323726
0.03060945471246611857
0.030588198586489968173
0.030555101340241554858
0.030531345224244922643
0.030497834482142775064
0.030473709938365640265
0.030439506244812734176
0.030415377714741068799
0.030381292800859268505
0.030358220802526248577
0.030325702153799788396
0.03030463760025579531
0.030273983652907961173
0.030254055086524081486
0.030224503995145566432
0.030204416993712492057
0.030174934083968509707
0.030154937741215817604
0.030125808206045538717
0.030107224499786516131
0.030080600425854385482
0.030065266114341994419
0.030042140599212539126
0.030029578196940517193
0.03000893178470802683
0.029997731707202199281
0.029977864554881154813
0.029967005857007050079
0.029947375223190957072
0.029936599742663938528
0.029917467855552989237
0.029907461822148526109
0.029888524245809112295
0.029878816104791417613
0.029859292569124139261
0.029848882489209808272
0.029828857812347484707
0.029817484202965913176
0.029796830663357590924
0.029785292775367656903
0.029764483174044283759
0.029752775206500849808
0.029731891265617968467
0.029719939746816383813
0.029699095258308227246
0.029687001031506930065
0.029666379181108863683
3.8234487817543765268e-05
5.2024609018927657164e-05
6.3961669719243908539e-05
8.8665878245197153541e-05
0.00012293315221537562247
0.00014996357509231551222
0.00016470347933423892524
0.00017892489075413926867
0.0002096027850268617702
0.00026582890638563507488
0.00032170686082748297134
0.00035774697774739122949
0.00037678819751402490906
0.0004025032778374825859
0.0004560706142148015672
0.00052493104418908182948
0.00058377301568410526911
0.00061766823327742464891
0.00064095488941895352886
0.00068805664896223945638
0.00077876141927888731849
0.00084780924741324553088
0.00089177051702251427384
0.00094373199978930490117
0.0010143698122910499524
0.0010847101009792080827
0.001147853082603016335
0.0012235938666661830797
0.0013205965392408612179
0.001411204288274510053
0.0014677361091250645374
0.0014990279054983030732
0.0015408291799476456132
0.0016273564351011579523
0.0017628776201102185333
0.0019208408412841463438
0.0020554479404668963768
0.0021328627242182891972
0.0021659534609681251917
0.0022054884775494464078
0.0022909663577281970739
0.0023835336289384154163
0.0024483755623258478089
0.002500146437562446311
0.0025791088244419778895
0.0027014669945196918832
0.0028384577123273372658
0.002948290103647043317
0.0030098220770530359318
0.00303715238339652676
0.003065841394483219233
0.0031296060979663499306
0.0032365095879990641962
0.0033658400207721805679
0.003522698561265199136
0.0037061631504448615954
0.0038969583670737818065
0.0040644371963231935505
0.0041882524040243720651
0.0042732460707107372544
0.004343970078841629355
0.0044254750137830440454
0.004529174976871496415
0.0046514892933641653963
0.0047843241359448599251
0.0049214005617819345934
0.0050585262922970284163
0.0051864840222474398873
0.0052923219184456563383
0.0053663388744381026671
0.0054078397198042251273
0.0054299198984718013636
0.0054564176066645812824
0.0055149904424623696908
0.0056787607405152894235
0.005963231397021202633
0.0062294177448502996083
0.0064384226316108869245
0.006580626641481603957
0.0066787930433645885386
0.0067721327137819035263
0.0068887155566873343668
0.0070327965661800290881
0.0071905795461853364361
0.0073446171178910262672
0.0074847679526992387522
0.0076072326194904027821
0.0077109915142173947322
0.0077954298144097900272
0.0078626227376747005043
0.0079270630652356153384
0.0080141892339047650362
0.0081534270340984666553
0.0083628664499861646991
0.0086355762736242853983
0.0089361324258361001655
0.0092174205419284591795
0.0094393493981339872401
0.0095833753402945354855
0.0096575580766527797244
0.0096917881993703377391
0.0097274521918808247445
0.0098029560536586051595
0.0099329219116706581744
0.010096842159382541856
0.010270517941593145309
0.010429367613698415154
0.010557518467892147013
0.010649321438973829296
0.010707833600725098072
0.010739742578295649253
0.0107562361223894256
0.010770553713466900561
0.010798002268287639621
0.010871571347974588392
0.011099264511821749224
0.011435390451950914331
0.011720709784793463884
0.011937787099223615486
0.012096933429975975649
0.012227685383680960557
0.012364650920769033535
0.012530104570645021062
0.012727280288789385304
0.012941976760818702311
0.01315359505995147664
0.013341975813474857629
0.013495450072429689831
0.013610760067439990617
0.013690277824226848927
0.013739973883268316937
0.01376711097593735951
0.013777907274697551859
0.013780452647476459926
0.013780855914442087864
0.013784138416514289671
0.01380177441060720725
0.013873562866509082242
0.014116618157735107142
0.014489133823338105553
0.014802675680737517952
0.015020946704380354689
0.015147471329938509699
0.015226471957730962348
0.015324933474316045426
0.015489674113494474386
0.015744902045827971482
0.016095104415268696868
0.016519225499371618937
0.016983700812401764796
0.01743952649914262687
0.017826668972447702599
0.018094643417579461125
0.018221491608564972103
0.018247986900904303309
0.01822903111603110804
0.018099901345457629354
0.017882774225096730036
0.017788304882729720491
0.017781023629051199986
0.017835040310541196845
0.018123057267918699087
0.018762952180712375028
0.019238515570274623834
0.019519643842925139127
0.019663156108813879125
0.019736672477456165126
0.019793465143839943099
0.019858961532970030583
0.019937504059193429662
0.020023046446759115019
0.02010118223491729611
0.020158506939019337628
0.020193208876901500015
0.020205451328106197734
0.020205362107851742443
0.020187459162843222893
0.020091882979104684626
0.019885075673431042154
0.019738306205924052716
0.019664361505327909718
0.019648373320182484919
0.019658944938099467276
0.019737857644519428424
0.020028951307880238364
0.020447512338102054319
0.020803370925514118317
0.02112444850113727457
0.021424689745104707334
0.025312528262570757609
0.025018235335800002167
0.024827072420437010236
0.024728619862000027207
0.024698396129722480219
0.024701722326252138762
0.024748230865680734963
0.024958060497857679355
0.025561868761022232821
0.026217198762404601842
0.026754638330575172128
0.027189003080683653985
0.027552917853856467856
0.027890389449700601215
0.028222685897706208807
0.028552493635351311463
0.028859464376289119258
0.029108536170318704411
0.029275027436775569178
0.029355298760565591565
0.029370563227566072462
0.02935642044275515658
0.029262944402100570657
0.028882936485621856643
0.028179493406613277673
0.027639267693866736986
0.02730166093205489003
0.027144066038753578152
0.027105111470273949431
0.027117318564011255733
0.027221210312781709412
0.027627723793433797694
0.028254462822141480915
0.028772960275802009905
0.029187768814141201723
0.029519343494420004909
0.029787941660548135359
0.030015764356994378836
0.030216769380637005515
0.030398164395176233837
0.030561052275775914266
0.03069731275472906834
0.030796757550700264161
0.030850149571011155347
0.030866336452096566206
0.030860689230365591362
0.030803300138140324305
0.03054206016430512094
0.029845947313918257116
0.029219572983534839589
0.028824113442443410199
0.028649217164401625385
0.028617165966492909973
0.028653339119155917664
0.028891195181429924627
0.029826539683881318765
0.031344859642287649371
0.032507804456594867337
0.033297521748001615571
0.033815038683325436553
0.034211406864442558962
0.034615970304455373485
0.035092379095289623347
0.035600842894593427712
0.036053168001311079738
0.03634819624631236562
0.036461352450205160303
0.036458420282206596696
0.036321666214249467841
0.03565252129245660706
0.034419941494380705549
0.033608809266872770316
0.033243057248890921229
0.033168638415689781496
0.03320818031429158268
0.033477868400194558951
0.034245179702174097236
0.034883109425528129044
0.035251253052886899475
0.035434318633823388978
0.035517080836187903126
0.035562124949594688117
0.035591530589470864177
0.035607723476599600909
0.035610682072219297656
0.035597323024195784424
0.035512112663904242538
0.03516857085421393192
0.03429353018744164816
0.033458463950289604738
0.032823569580915194777
0.032388449930518106723
0.032125007638030937673
0.031987986155725220416
0.031930190652735973567
0.03191258998133195135
0.031909635060344609947
0.031913950025265626353
0.031939435637791911693
0.03198545665153430112
0.032020783303831658329
0.032042773748215791496
0.032053373123665976352
0.032056876126485937817
0.03205371791562251077
0.032028662503135657547
0.031926994964085693429
0.031702147565839056131
0.031497471867372027476
0.031332449612898209679
0.031208169159687496746
0.031120262924994264442
0.031060435652784365579
0.031020077209458551265
0.030990647631762988784
0.030969212339227208258
0.030953092991779063148
0.030942071260582664632
0.03093576907002611176
0.030934026697702687175
0.030934789778886875866
0.030938286956024723534
0.030950405792366891128
0.030976315169197899541
0.030998160981124754654
0.031013065873525230698
0.031021990771207503396
0.031026881716154756236
0.031029486933011416611
0.031031398115655379338
0.031034256163099099846
0.031038284119192714045
0.031047390481062624862
0.031064220550038799257
0.031087476453583184205