/*--------------------------------*- C++ -*----------------------------------*\
  =========                 |
  \\      /  F ield         | OpenFOAM: The Open Source CFD Toolbox
   \\    /   O peration     | Website:  https://openfoam.org
    \\  /    A nd           | Version:  12
     \\/     M anipulation  |
\*---------------------------------------------------------------------------*/
FoamFile
{
    format      ascii;
    class       volScalarField;
    location    "0.0105";
    object      p_0;
}
// * * * * * * * * * * * * * * * * * * * * * * * * * * * * * * * * * * * * * //

dimensions      [1 -1 -2 0 0 0 0];

internalField   nonuniform List<scalar> 
75962
(
101064.36214953007584
100963.85601808050706
101212.63464963635488
101227.72187605910585
101349.7883105630026
101421.00226258081966
101402.05020952693303
101398.6246535784594
101376.52792082920496
101346.22112476591428
101282.78693720683805
101231.10066821529472
101313.55960343861079
101461.1277830908075
101481.84103305102326
101360.02456480856927
101244.98720215295907
101227.62123584139044
101283.69608696007344
101373.98395557509502
101439.86182552319951
101435.23726649707532
101364.29279133207456
101296.61223021583282
101283.35334557038732
101276.94447380765632
101242.45822308321658
101224.62899423726776
101237.25929149037984
101254.5337362808641
101284.8325907188846
101334.70801587558526
101365.62713493093906
101340.05303869233467
101301.34847422325402
101293.78094093807158
101312.86987354044686
101329.69058583582228
101332.51483542370261
101317.86942755678319
101303.86128664045827
101305.37511946840095
101325.73476683533227
101356.40219070918101
101382.40701328049181
101385.01098007908149
101354.8053379382909
101311.18959142993845
101297.34902444617182
101329.31257901171921
101377.94556120090419
101405.84140043675143
101408.12607228969864
101397.13077021966456
101384.44389961131674
101378.6834340619389
101376.59383496703231
101358.83601219138654
101312.63928463823686
101255.04835091081623
101222.17491984448861
101238.44058122792921
101292.81668554288626
101347.6168099589413
101369.38090060259856
101357.51939345062419
101342.57064150835504
101351.97146059948136
101380.87723267864203
101401.0316644111881
101396.39117468617042
101377.80445429205429
101369.73898243402073
101379.8057187594095
101391.04396786002326
101375.65376562629535
101326.97682411350252
101269.30596748874814
101232.73506073521276
101227.39816598143079
101245.67995372637233
101277.38041894868365
101308.51318065059604
101323.34960427998158
101314.96203956969839
101295.41756807164347
101285.52629412933311
101293.66153876455792
101308.49057071724383
101312.87907768590958
101302.63727357513562
101284.70054940000409
101263.63632005512773
101237.42944481078302
101198.59637241736345
101152.16696156117541
101114.97214114769304
101103.84228638281638
101119.71377192041837
101146.83262798082433
101166.09017528092954
101173.39600056179916
101178.14026431109232
101189.47218984876235
101203.22596350086678
101205.59395630365179
101187.21292605140479
101154.70011391381558
101126.12343358524959
101119.15260701914667
101139.21924820872664
101174.53689962491626
101208.15299899375532
101229.09481125258026
101237.69207793239912
101239.4634648871579
101235.95214891225623
101223.63153698363749
101199.00156561330368
101163.35155788871634
101125.14717736034072
101094.76967131566198
101076.68196922044444
101068.76459358750435
101063.49611941137118
101055.92183292965638
101048.1271040346619
101047.63212666373875
101059.00904972513672
101078.62139355843829
101097.51803770122933
101108.48529672021687
101110.07509913906688
101108.86660633365682
101111.67905440615141
101122.39921796969429
101136.31730684249487
101142.62948612276523
101133.64658691559453
101112.99609507655259
101094.56397877656855
101092.3322460771451
101108.75999493588461
101133.2612590741046
101150.95336408106959
101153.9689101556578
101144.88266392274818
101134.93941439421906
101132.86110674285737
101141.33923314933782
101154.95556194342498
101166.10789422034577
101172.36440181905346
101176.08751988633594
101181.81288936159399
101191.2204928418796
101201.18485331979173
101206.52514760752092
101204.33705700843711
101196.52306788052374
101188.39228159221238
101185.27987509239756
101188.39374396283529
101193.52912069876038
101196.65136853052536
101198.00174953775422
101202.51468485164514
101215.37365155247971
101235.47238241443119
101255.13161147102073
101263.51938475709176
101254.35786562869907
101230.39407446811674
101202.51064808190858
101183.48687759366294
101180.7553341902094
101191.57327249120863
101205.40723444346804
101210.37397216250247
101202.60672700440045
101187.54980861680815
101177.11774563790823
101180.49833303914056
101197.68165602943918
101218.62374141997134
101229.64918829010276
101221.63682091777446
101194.96665427664993
100894.78762637586624
100884.38815853808774
100874.55671097122831
100868.32658137168619
100866.1225453306397
100865.78375541920832
100864.7958702420292
100861.78850847363356
100857.42089003317233
100853.82300785089319
100852.99596768443007
100855.70428456585796
100860.96204440065776
100866.75545626920939
100871.18410592844884
100873.04500045276654
100871.37984551182308
100865.69196946130251
100855.62215342024865
100841.45807439478813
100825.75687034409202
100811.25630799039209
100801.1433266729
100796.3491680676525
100796.02063232354703
100797.62587422176148
100797.92573387612356
100794.17504814834683
100784.80611219326966
100769.78118588944199
100750.61209772001894
100730.34291663012118
100713.10629123536637
100703.61740006830951
100705.00467217329424
100718.27446845026861
100740.75734970200574
100767.29134813699056
100791.4912914383458
100808.192935733794
100815.42708111062529
100814.66403217311017
100809.41229548168485
100804.06570201279828
100802.28041995722742
100805.7710738494352
100814.21837718242023
100825.82536035854719
100837.86631606193259
100847.13847379294748
100851.40561881133181
100850.14951356047823
100844.62159795768093
100837.81530788596137
100833.94881923023786
100836.46054328525497
100847.13074324812624
100864.82046015288506
100886.06696349612321
100905.83819248148939
100920.52978448368958
100928.7745298162481
100931.90243916201871
100932.76892650562513
100934.3536335547833
100938.3646029606316
100944.84859481357853
100952.47637076232058
100960.64466177376744
100969.19923173831194
100978.20590397861088
100987.65582176664611
100996.3314204178605
101002.14372480088787
101002.43624304390687
100995.73264421838394
100982.78417470921704
100966.0350480361376
100949.31011972065608
100935.55087746445497
100926.62708130879037
100922.98818727767502
100923.24297832937737
100925.31852378846088
100926.84912188931776
100925.84672410602798
100920.78005746968847
100910.48172275505203
100894.55646317772334
100873.33601871071733
100847.69869100487267
100819.23402323201299
100789.99990518721461
100761.99770697551139
100736.53367382443685
100714.42132162523922
100696.52719707186043
100682.65549911302514
100673.65065131918527
100669.40329973041662
100669.90986899043492
100673.94564434175845
100679.23989333583449
100683.10735117267177
100682.82932068881928
100677.28578443097649
100667.13078836417117
100654.60930648850626
100642.55382752578589
100633.62412683579896
100629.43489274466992
100630.54290704531013
100636.20134717476321
100644.97428924424457
100655.19146795634879
100665.1217149803997
100673.05257375590736
100677.60104605648667
100678.0339557845582
100674.21416559471982
100666.65035537609947
100656.56413699728728
100645.6477202946262
100635.63152598930174
100627.8620870897721
100622.79162192772492
100619.94085536332568
100618.47751363062707
100617.79681515603443
100618.30450605039368
100621.45969912908913
100629.57272370099963
100645.20563339484215
100670.40791730013734
100705.14634990827471
100746.17259106588608
100788.8306263279228
100828.32593926702975
100860.36828919941036
100882.85871077635966
100896.27632944122888
100903.36789486576163
100907.67578639299609
100911.59602385268954
100916.10499333727057
100919.42505752843863
100918.65989225210797
100911.19738341332413
100895.74660427376512
100873.35618705090019
100847.18733518567751
100821.40902292916144
100799.87466355410288
100785.22079553105868
100778.53660262431367
100779.55604225117713
100787.26919914297468
100800.68342879219563
100819.2199304656242
100842.62726256881433
100870.67664513151976
100902.24917593131249
100934.81154316669563
100964.60441827980685
100987.66162122135574
101000.79156132962089
101002.5258914486476
100993.47141599802126
100976.10256895996281
100954.04078868060606
100931.04741187772015
100910.2186823188531
100893.40999454668781
100881.18237024889095
100873.17866414158198
100868.65239465306513
100866.99580879000132
100867.76160975101811
100870.70924230592209
100875.52358657697914
100881.61195985980157
100888.22220142443257
100894.45451049260737
100899.67210478402558
100903.72469792803167
100906.76813499690616
100908.97039498452796
100910.33970317113562
100910.33488379033224
100908.07466866997129
100902.53751092222228
100893.17602029643604
100880.18958465286414
100864.42045543031418
100847.2353005574696
100830.1320962861646
100814.33734061795985
100800.5566405805439
100789.01108269045653
100779.60170473129256
100772.18264953469043
100766.87518991467368
100764.07570277078776
100764.2041937316244
100767.39841324964073
100773.26427003588469
100780.96172884375846
100789.20103885271237
100796.56703289374127
100801.86406830958731
100804.52263308521651
100804.66780060615565
100803.03046099931817
100800.74292732402682
100798.98784239770612
100798.51306236104574
100799.49032943364
100801.29345505748643
100802.69075968314428
100802.30987640382955
100799.14180373941781
100792.74770291721507
100783.43161341574159
100772.2278906145948
100760.7062430762744
100750.78415350215801
100744.13805355672957
100741.97712630862952
100744.79458036842698
100752.49716521266964
100764.49769415074843
100779.89764574363653
100797.76214302521839
100817.03902179743454
100836.70489056115912
100855.92352420986572
100874.06711139043909
100890.6443206769909
100905.10973346391984
100916.93217426959018
100925.76037103401904
100931.38089916188619
100933.7346449210163
100933.13852257130202
100930.33123748168873
100926.26982558787859
100921.90842500435247
100918.00440265944053
100914.98652594008308
100912.98270487877016
100911.8591399538127
100911.22441036686359
100910.5039444600261
100909.08183679338254
101449.22585919064295
101489.80435759916145
101528.09690572126419
101474.07023513504828
101386.33023159837467
101232.86150692139927
101200.37611833866686
101277.64238268545887
101316.6320052009396
101362.0429898872535
101381.85343332712364
101367.20570433085959
101430.39954203768866
101550.44966897518316
101556.87522873085982
101423.72804342619202
101326.37920822878368
101336.27913248472032
101378.75336864273413
101429.15627075184602
101490.27110999637807
101490.31224366856623
101391.9130109851103
101288.64977956030634
101270.65317071499885
101281.66515202037408
101254.62998088081076
101220.09808266746404
101212.00441745540593
101222.14617814312805
101262.2258198930067
101336.01911386403663
101392.22089499888534
101389.53955828343169
101360.95564814476529
101351.20708391357039
101352.51346298154385
101349.53486396172957
101328.6455343109119
101299.38738201672095
101270.09139331168262
101254.61690966505557
101273.04677640199952
101323.63303923197964
101375.98264855360321
101391.74108719891228
101364.64970017950691
101325.56942587105732
101311.78814252301527
101328.40266139947926
101352.07301739606191
101360.25654172725626
101352.61556964670308
101338.89159521226247
101330.02984757097147
101333.02886548993411
101342.90051944316656
101336.4852628299559
101299.83717240825354
101250.10172147949925
101220.54856218205532
101233.53484659548849
101285.07120436063269
101344.62387357177795
101375.39330806319776
101368.38949572228012
101351.52535134174104
101357.24861696065636
101385.75817632826511
101407.93748026611865
101401.84519865874609
101375.50548901053844
101354.86280922061997
101355.37879577709828
101363.37120929537923
101354.05542457528645
101318.08349100316991
101272.29005759276333
101243.02839842783578
101239.45525364743662
101255.10849547774706
101277.33088641926588
101294.97992572239309
101301.28143236333563
101296.01580838809605
101288.24474785984785
101290.40792846694239
101304.50015818093379
101319.28312598654884
101321.91081539816514
101308.61917953887314
101285.29645640516537
101258.6494592900417
101230.31669666430389
101195.84153476751817
101158.38954864082916
101129.92923997419712
101124.69311654445482
101143.53720088649425
101171.34992054932809
101186.95297623927763
101184.94754904079309
101178.57906132322387
101184.01500847448187
101200.92601331652259
101211.68616573451436
101200.82710377399053
101171.80350347637432
101142.84618592141487
101135.15538116349489
101155.4755528580863
101191.24595900905842
101222.46300011173298
101235.55980695434846
101231.7433827775385
101221.99625146834296
101215.04402805953578
101210.15668299997924
101200.71358141428209
101181.72890574285702
101156.51394790614722
101133.03102123491408
101115.7708507066418
101103.99344711829326
101092.72086572564149
101080.49919470620807
101070.70124663889874
101067.16625678270066
101071.19583705764671
101080.84624649789475
101093.11058471124852
101104.92262106684211
101113.79910273273708
101119.6471751362842
101126.13683222619875
101139.28254783495504
101157.81639470547088
101170.87547769442608
101167.02815703078522
101146.48675384167291
101122.15660625744204
101110.31489467185747
101117.64959067243035
101136.64797322684899
101153.90048559420393
101159.836915824475
101154.67868835084664
101146.41973694006447
101142.15802113432437
101143.68681996240048
101147.42892385918822
101149.58618146416848
101150.37092655793822
101153.39693480249844
101162.35098118630413
101177.11101817619056
101192.49386073149799
101202.87225850837422
101206.2978978882602
101205.14409991960565
101204.70259695094137
101207.43866982228064
101211.18539605311526
101211.63066712753789
101207.01107152405893
101201.18102601685678
101202.8447787030891
101216.75700209586648
101239.42818387137959
101259.35931903167511
101264.54872020860785
101250.46487815422006
101223.05236469692318
101195.61031250846281
101181.60076254239539
101186.71774059426389
101204.98438567129779
101222.44402462184371
101226.54382476156752
101214.29841752437642
101193.99035031534731
101179.22331787300936
101180.92681021122553
101199.85283079682267
101225.38294422066247
101242.34913935145596
101239.78697547494085
101216.71552599342249
101180.70296885602875
100909.83598531807365
100897.24935254587035
100885.80935000257159
100878.114885320756
100874.50925407072646
100873.17247720964951
100870.69038838124834
100865.12635929773387
100857.45012194715673
100850.62959833587229
100847.92278390558204
100850.89598891659989
100858.50944319866539
100867.65621798328357
100875.13112902959983
100878.56630899546144
100877.56112025046605
100872.33642152303946
100862.71862976514967
100848.92628208460519
100832.44816636858741
100815.65902417709003
100801.64595397944504
100792.18526226625545
100787.46960933263472
100786.17560444290575
100785.53551314050856
100783.80471652763663
100780.24718836064858
100774.41587636101758
100765.81062120797287
100754.35604953279835
100741.00626157033548
100728.36327107824036
100719.82816387456842
100718.99928625798202
100727.63167386018904
100745.02609686706273
100767.12976233649533
100787.98724127234891
100802.38081458542729
100807.85074410784
100805.39920527936192
100798.91317219269695
100793.40185729433142
100793.2055505070166
100800.35420378728304
100814.31163934514916
100832.35453118666192
100850.38180006913899
100864.31632115646789
100871.17180107807508
100870.06270726588264
100862.65866630844539
100853.03864374592376
100846.4093225797551
100846.93574255108251
100856.47968707328255
100873.47080941563763
100893.42814096694929
100911.02215010349755
100922.46593536730506
100926.72314442426432
100925.91247161035426
100923.77400616444356
100924.20725468733872
100929.41020449496864
100939.46334326604847
100952.68318872332748
100966.73604718646675
100979.82080667435366
100990.79078143916558
100999.15056159111555
101004.39655990357278
101005.59501482488122
101002.12203080687323
100993.57094995684747
100980.52236422240094
100964.38398426937056
100947.44387819165422
100931.83331244505825
100919.73532671148132
100912.37882643168268
100910.2604976225557
100912.63774887289037
100917.64768145015114
100922.29485990744433
100923.64609514301992
100919.15038484470278
100907.26094952637504
100887.5149655364221
100861.3321585223166
100831.03503493405879
100798.99544847913785
100767.4306852871814
100738.22947081003804
100712.69835757151304
100691.79694086022209
100676.13680801946612
100666.49681517219869
100662.82129856898973
100664.81662399430934
100671.19267646117078
100679.44229434037698
100686.63348939192656
100689.90195183458854
100687.87668627532548
100681.02018937311368
100671.26870718218561
100661.48551836483239
100653.51965860262862
100649.55126483499771
100649.41502232800121
100652.51257936265029
100657.90114718566474
100664.56102470612677
100671.4704759545275
100677.73739572762861
100682.47347855866246
100684.52391178453399
100683.4867120389099
100679.08144178803195
100671.76701128817513
100662.56291357075679
100652.82308298713178
100643.76341462128039
100636.10729785315925
100630.09742948024359
100625.55758800912008
100622.46210952219553
100621.66191857344529
100625.30793676001485
100635.91176875402743
100655.69515532252262
100685.19412417025887
100722.73467185617483
100765.31663026087335
100808.01738633333298
100845.83230000099866
100875.06925130540913
100894.62428505593562
100905.9266290274245
100912.06929867960571
100916.61171682170243
100921.40029069743468
100926.30400972142525
100929.32313938591687
100927.10022823327745
100917.22022174393351
100899.21002114345902
100874.81629947504553
100847.67203884887567
100822.17350233483012
100802.06818025014945
100789.56758030684432
100785.07414204186352
100787.78788269560027
100796.53071816085139
100810.36878978529421
100829.04676176328212
100852.68079945161298
100881.13103145131026
100913.12313629356504
100945.81792590870464
100975.22052611014806
100997.05228947482829
101008.14161448981031
101007.33644014217134
100995.88870055324514
100976.9947003753914
100954.76004075391393
100933.1627366959292
100915.02265061630169
100901.48908830968139
100892.51005579487537
100887.10858992370777
100884.10223874701478
100882.73010343823989
100882.80816529267759
100884.49383404839318
100887.98047493214835
100893.19912836568255
100899.63697889067407
100906.47495812726265
100912.87853431416443
100918.24699511265499
100922.2810893899441
100924.8498432849301
100925.68784721620614
100924.36730039150279
100920.29905724691343
100912.90988339814066
100902.04285541763238
100888.29961775850097
100872.81957406054426
100856.98525672632968
100841.98173688312818
100828.56053585537302
100816.86736564722378
100806.57742630830035
100797.31336476274009
100788.88868373290461
100781.5630598521675
100776.04534504031471
100773.2528301034472
100773.78022579976823
100777.54823113651946
100783.68484514366719
100790.85035319607414
100797.53053719781747
100802.4128927263373
100804.86265590427502
100805.04171865274839
100803.79585685301572
100802.28163141656842
100801.74799304002954
100802.97805075997894
100806.07484513844247
100810.37874687150179
100814.59271582070505
100817.06198358756956
100816.31024002897902
100811.57165294588776
100802.91152203717502
100791.22654595787753
100778.15337391626963
100765.68083586069406
100755.81884595003794
100750.19273562614399
100749.78853486149455
100754.76703171672125
100764.57149873003073
100778.11431353398075
100794.08298863483651
100811.28193787124474
100828.70832578116097
100845.61649997183122
100861.48234047926962
100875.93020723389054
100888.75001901101496
100899.69300711239339
100908.39286051123054
100914.57412414472492
100918.04096041846788
100918.71960039186524
100916.91506403766107
100913.2884218965919
100908.71542646321177
100904.14066858463048
100900.33680810304941
100897.752970518035
100896.54477295122342
100896.60290239706228
100897.56037597455725
100898.86928071377042
101591.95846146183612
101696.0394148518244
101558.32566748137469
101430.77371947461506
101294.73150470163091
101246.22397655987879
101352.01886127254693
101398.84817920607748
101379.7397918561328
101458.24488552402181
101541.45438158085744
101526.44881452279515
101508.62409575427591
101562.56329839913815
101571.88022205869493
101499.65218224290584
101464.21814653788169
101488.39397040706535
101479.01176353475603
101456.33033446660556
101503.86343307676725
101540.13766718031547
101461.15254705958068
101349.19379845062213
101321.37770987048862
101334.37590275748516
101298.13451473736495
101231.03858083943487
101195.67613662802614
101211.52415320502769
101267.34910383266106
101345.96764760778751
101408.08786367035646
101429.6572016087157
101416.3898114986805
101392.80999321224226
101369.23887879485846
101346.95351709643728
101323.65337499089947
101292.20389700619853
101251.16908875308582
101223.21583382740209
101236.91604292800184
101294.66792906064074
101358.92469635729503
101386.96898447861895
101373.03931435826235
101343.79754080191196
101319.52133046305971
101304.83224412609707
101294.14064541232074
101284.5040335739468
101277.6476719090133
101274.86273256750428
101276.68239913858997
101287.00774434959749
101306.21391007545753
101314.41157237264269
101295.26897335257672
101258.23451230552746
101228.01686084158428
101228.51310745693627
101268.26914534557727
101328.32870191904658
101370.29604615573771
101372.12585650966503
101351.30754466912185
101343.33377509169804
101361.69693003926659
101384.71447581672692
101385.03922963120567
101359.30063963291468
101330.20266029774211
101318.65788761677686
101323.31493740784936
101326.02656058366119
101313.84622573512024
101290.20389144036744
101268.44625347694091
101257.51051595491299
101256.73718904740235
101261.76879412186099
101267.45958487871394
101269.70733435281727
101269.31022733573627
101271.23757031958667
101280.07350423654134
101292.97212548056268
101304.09574827052711
101307.87149029935244
101301.6910742832988
101284.74761072316323
101259.82852461111906
101231.83919437248551
101204.25153582710482
101179.2172061366
101160.92167023372895
101158.09760369238211
101172.96745235755225
101193.29969726460695
101200.7081423313939
101190.14958842513443
101176.13481611815223
101175.93693129419989
101190.42559459581389
101202.77712371911912
101196.46221689409867
101173.57748881266161
101151.95539224384993
101150.66245410835836
101173.43941934610484
101206.37369669828331
101228.01065143910819
101227.43707529506355
101209.60420716484077
101191.38761249222443
101186.38734082097653
101193.82749199883256
101203.05664109223289
101203.80856246197072
101194.17781770898728
101179.53576120619255
101164.30027407649322
101148.78311363085231
101131.98858128696156
101116.16138965153368
101104.21981776473694
101095.71758368202427
101090.29502740531461
101088.44707846918027
101093.03156461160688
101103.84533968762844
101117.12587006816466
101127.17558584171638
101138.34995707622147
101158.08174020724255
101184.99206973526452
101206.56122057545872
101208.02702348957246
101186.95285518221499
101156.04386876306671
101133.14711423062545
101128.1515336746088
101137.85190218781645
101151.40070591376571
101159.85291348819737
101161.02757712779567
101157.73031796110445
101154.16361689554469
101151.2716090233007
101147.33128860330908
101141.95642183611926
101137.82786651123024
101139.07715796625416
101148.17147770122392
101164.34780575882178
101182.35098782095884
101196.79649185431481
101205.92984766890004
101211.51887820605771
101216.83241561432078
101222.2692872427433
101224.45218666155415
101220.40992968213686
101211.08933462644927
101202.50967731252604
101203.68549233106023
101217.88017600738385
101239.80753907286271
101256.13875431990891
101256.63520105130738
101238.90929048847465
101210.90532342232473
101186.57055607442453
101178.5142619262042
101190.02410416894418
101212.70415055958438
101231.51174616756907
101234.29153293985291
101219.32351545593701
101196.84264194661228
101181.13099200792203
101182.92455817983137
101202.17822071436967
101228.51308759358653
101247.41279491398018
101248.52977025251312
101230.5369540516549
101200.41840655336273
100909.74619834811892
100892.96990631744848
100881.83109711237194
100877.12267541592882
100876.22551949389162
100875.28655423010059
100871.2127047933609
100863.53361854955438
100854.99350980605232
100849.63126842405472
100850.34800948343764
100857.10589400073513
100867.06988462255686
100876.47106871294091
100882.16425242723199
100883.15968265826814
100879.1835786458978
100871.058109694015
100858.97564796177903
100843.06465624801058
100825.43808075790002
100809.3133435081254
100797.21522091604129
100790.12306194347912
100787.32309213682311
100786.36898795525485
100784.92930722585879
100782.28527854246204
100779.30052780003462
100776.72500617530022
100774.20971252409799
100770.65994867005793
100764.79320935062424
100756.81376503167849
100748.52850248017057
100743.51592052060005
100744.79362526253681
100753.5408954029117
100767.97238126180309
100783.37826562619011
100794.89113963746058
100799.60782369683147
100797.39249478564307
100791.53579509253905
100787.00968971299881
100788.32317058663466
100797.95716062224528
100815.61278114140441
100838.22484124664334
100860.99240003996238
100879.16814788256306
100889.02745209967543
100889.38235477216949
100882.17486507767171
100871.84818194253603
100864.01597255151137
100863.44022105539625
100871.64006364424131
100886.76131813558459
100903.85432322487759
100917.73947572500037
100925.05460965001839
100925.34278473886661
100921.31810505222529
100917.37242630406399
100917.55871295907127
100924.11035510257352
100936.86160921027476
100953.79101579196868
100971.28113275123178
100986.43197005658294
100997.60166050518455
101004.36359524194268
101006.99002417796873
101005.90323201201682
101001.78060873845243
100994.50616547363461
100983.83515040035127
100969.62002667039633
100952.75247629325895
100934.98931548683322
100918.78804655121348
100907.04549726640107
100901.87139551597647
100903.99043140280992
100911.84120208746754
100921.53565755950694
100928.54470487743674
100928.83978938905057
100919.783455408804
100901.26401376369176
100874.79658917720371
100843.13011680278578
100809.47457648059935
100776.36753942570067
100745.6946436783619
100718.69475921204139
100696.37342995512881
100679.82592802609724
100669.36536612521741
100665.62046591777471
100668.18654573857202
100675.56715735436592
100685.48698864899052
100694.81713711358316
100701.2316556085716
100703.06160432081379
100700.26427637183224
100693.9990975453693
100686.78056666307384
100681.246409864616
100677.13994402500975
100674.98734162873006
100674.72920762489957
100675.88328318046115
100678.07884171901969
100681.10783422058739
100684.61340987682343
100688.01540840959933
100690.71881177723117
100691.58861674682703
100690.00192656338913
100685.63791441246576
100678.80738574078714
100670.34715190365387
100661.32686666707741
100652.72481606640213
100645.22596739772416
100639.2781272551656
100635.58365835271252
100635.4249046635814
100640.64772756147431
100653.22245189124078
100674.64627291067154
100704.95610516035231
100742.43589449192223
100783.58796017084387
100823.50503694517829
100857.62034443236189
100883.09406259245588
100899.48899655639252
100908.823663678093
100914.20066892298928
100918.38065525511047
100922.94964811034151
100926.93915682037186
100928.2026536889025
100923.84365866795997
100911.93588470402756
100892.83748668708722
100868.81727349194989
100843.54225919398596
100821.11616927242721
100804.74307419468823
100795.88283209080691
100794.30023153137881
100798.78869868113543
100808.04052737221355
100821.43961123008921
100839.14431098414934
100861.59819616381719
100888.60675827090745
100918.60712290985975
100948.67451171809807
100974.8484187151189
100993.21587643344537
101001.07607127833762
100997.93512144431588
100985.69563535322959
100967.9463036643283
100948.80715582877747
100931.83104628768342
100919.05766435824626
100910.93252080066304
100906.59532111338922
100904.49249748828879
100903.32283261590055
100902.36366514624387
100901.68197779501497
100901.86309995027841
100903.51951641467167
100907.0296531249187
100912.13054273315356
100918.16141269549553
100924.19692763368948
100929.35945848598203
100933.09227592029492
100935.01911630443647
100934.77747014022316
100931.98670940955344
100926.32294772972818
100917.66769285559712
100906.21234051710053
100892.6591346860514
100878.19931389314297
100864.08988516885438
100851.24366622437083
100840.06621728003665
100830.36562443198636
100821.62527407897869
100813.39125703636091
100805.55987344228197
100798.46386555282515
100792.75482865169761
100789.27246539440239
100788.60842051428335
100790.71817130013369
100794.80509303539293
100799.50401070060616
100803.44424499514571
100805.69806481123669
100805.94680908379087
100804.66041989810765
100802.88647774055426
100801.92462333184085
100802.87019378523109
100806.33864951875876
100812.18000570779259
100819.42999368223536
100826.58207109154318
100831.87254455870425
100833.637494951603
100830.72593053310993
100822.91846004067338
100811.01389078455395
100796.6647244838241
100782.01919767937216
100769.30231669463683
100760.35868722407031
100756.33429801475722
100757.62822214380139
100763.8999361807364
100774.23934190547152
100787.36163464182755
100801.92722117993981
100816.92476685914153
100831.67279513858375
100845.78622453579737
100858.9551137121307
100870.78905229461088
100880.94544325961033
100889.05083139514318
100894.69520116192871
100897.71362021399545
100898.18197608400078
100896.34595028567128
100892.74411763191165
100888.14489674904326
100883.37194414291298
100879.27374587306986
100876.52265945491672
100875.41385331178026
100875.9421958658786
100877.88302435504738
100880.82957932514546
100884.30608268651122
101480.54223522506072
101327.42040576148429
101535.18999563207035
101588.3293862718856
101408.50400160485879
101344.08212624482985
101422.75306512760289
101408.68971501107444