/*--------------------------------*- C++ -*----------------------------------*\
  =========                 |
  \\      /  F ield         | OpenFOAM: The Open Source CFD Toolbox
   \\    /   O peration     | Website:  https://openfoam.org
    \\  /    A nd           | Version:  12
     \\/     M anipulation  |
\*---------------------------------------------------------------------------*/
FoamFile
{
    format      ascii;
    class       volScalarField;
    location    "0.0105";
    object      T;
}
// * * * * * * * * * * * * * * * * * * * * * * * * * * * * * * * * * * * * * //

dimensions      [0 0 0 1 0 0 0];

internalField   nonuniform List<scalar> 
75962
(
299.77846813102922852
299.69427583874522725
299.95503351374861722
299.92444892438760462
299.98108429163727351
300.03494100365753638
300.02232400394143497
300.00910216618473214
299.96894950527689616
299.9348745120453259
299.8986565284994299
299.88160096260020282
299.96878490726203381
300.10084183140440928
300.12128015492658051
300.02411095245656725
299.94857866422870529
299.9828258950116151
300.09869871933045715
300.23692054390437534
300.32099746874939683
300.30502668962100188
300.21056575019429147
300.12182056619462855
300.09429762261515862
300.07971174664771752
300.03344081213674599
299.99228882021049003
299.98031739620250846
299.98666573444876349
300.02178756454736686
300.09026235187536713
300.15560750109125365
300.17939617283997222
300.19160057251798435
300.22491412806158451
300.27325364378197037
300.31197026671259209
300.33316259012804039
300.333806928942181
300.32627738593356526
300.32091845974650823
300.32301655287267295
300.33356387612997196
300.34898205720207898
300.35688949553252769
300.34374377651067789
300.31602753065482148
300.30481864126130631
300.32790325280791421
300.37149347291966706
300.41431147241939925
300.45523498666142359
300.49768427725950914
300.53647782341607808
300.56395544508978901
300.57139416006367583
300.54935887561344998
300.5034485909485511
300.46506890074408602
300.4719319232318071
300.53577810832285877
300.62528317198899686
300.68529260252387303
300.67704622466106912
300.61073606473627251
300.54066992365068245
300.52237490964012068
300.57091709099756827
300.65849762827343739
300.74716153116480655
300.81441945631928547
300.85756885847769126
300.87762792322467931
300.87328419471651841
300.84433958291339195
300.80708688234528836
300.79254446167584547
300.82106116302111332
300.88403618783570437
300.95439606129178856
301.0094744553892383
301.03524122503301896
301.02705022880883234
300.99336687046786665
300.95816851517622581
300.94767051611034958
300.97097810545415086
301.015228472836327
301.0605808886758723
301.09867919801934022
301.13147105606327614
301.15908509922019221
301.17600172011185578
301.1735996258850605
301.1577823630527746
301.14943124485000681
301.17198613373449234
301.23260233931864605
301.31604583278948439
301.39429310629202519
301.44616492755920945
301.4641474203236271
301.45077026184628721
301.41123255342415632
301.35372904825305795
301.29368470318831896
301.25405199484060859
301.25430150125635009
301.29935999122471912
301.37411953786983076
301.44810238144515324
301.49423501005446724
301.50309689960226933
301.4861973656567784
301.46524524823195179
301.45669853308316988
301.46465802069292295
301.48276177181554658
301.50002138811680652
301.5077976458578064
301.50141891977807518
301.47798512391261738
301.43795604639524299
301.38494443887799434
301.32938665534385336
301.28807578738320672
301.27840715514275871
301.30792790220169763
301.36851286887815604
301.44001935032736128
301.50030100657136245
301.53361120552699504
301.5375085147281311
301.51880298795441604
301.49056193935155079
301.46391487264946818
301.44496593347832913
301.43751596775587132
301.44692516879592858
301.47912496148450145
301.53463265845624619
301.60255410776369445
301.66323526618032247
301.69851237345375239
301.70230056438225574
301.68247626420662755
301.65674988848849125
301.63968738033474892
301.63702367169742047
301.64293302577868872
301.64611130098256808
301.63899843148976743
301.62076349815509957
301.59723721198440671
301.57683818198563586
301.56706868461537852
301.5737011942608774
301.60120212977739129
301.65209615386748965
301.72455852179916747
301.8104039155032865
301.89451036730446276
301.95795063455830132
301.98713289855891162
301.98037204478174544
301.9489034093746227
301.91104785977501024
301.88212911389683768
301.86923479874565146
301.8698461005566287
301.87673061652532169
301.88318265292747355
301.88611677859597648
301.88569875856666158
301.88307476336359514
301.8778606542206262
301.86929403935181426
301.85893704656842829
301.8550989946842833
301.87038203161125693
301.91660141164027209
301.99599970228803159
302.09676272453953061
302.19547023244666661
302.26676385795269653
302.29447987727985492
302.27836376662753537
302.44147816183027544
302.46660212586056105
302.48319954107739704
302.49302455432535908
302.49963376996402076
302.50643155383005478
302.51624460611481027
302.53068976931962197
302.54997876448908301
302.57259520157583665
302.5950017220771997
302.61227818738723272
302.61927448285791797
302.61239320217708837
302.59091068984605499
302.55703764776103526
302.51458656833000305
302.46804897248460975
302.42149045926311146
302.37870006131709033
302.34446628698384529
302.32281022283336824
302.31718488008675649
302.32801803041189714
302.35298328243436572
302.38722303055453722
302.42441360497821279
302.45825607057406614
302.4835607372418167
302.49704283612044264
302.49780517884374831
302.48761025088748511
302.47058132890276738
302.45251772715789684
302.43864523044817361
302.43256489658597275
302.43428281354027831
302.44076617982869948
302.4468820831997391
302.44763249240799041
302.44038004731260116
302.42572779509339398
302.40692780327674427
302.38915709701325341
302.37795731102795571
302.3775980218345012
302.39021708331296168
302.41559293919272022
302.45119094801674464
302.49254308242626621
302.53486229955518638
302.57429282397322368
302.60857623778872494
302.63744781145686602
302.66218303304424353
302.68364260130221055
302.70109625926778563
302.71095916809088067
302.70755193475230271
302.68469805273502971
302.63950951263132083
302.57424800786066044
302.49730191798312262
302.42166901146089231
302.3622897489068464
302.33253131741469133
302.34116359985409872
302.39024359754182569
302.47565409322379537
302.58708498175951718
302.70986448057681173
302.82782919818868095
302.92559179165277783
302.99115027998971073
303.0170641393813753
303.00168406640705143
302.9490284417910857
302.86739435481445071
302.76818795670197915
302.66338511767992259
302.56466613312011305
302.48210482166354041
302.42267607969034771
302.3901783843033968
302.3848724665420491
302.40385575281351294
302.44125324525134602
302.4888606176289727
302.53747943720935609
302.57815845762013396
302.60332591542066893
302.60806834681159216
302.59073698760198567
302.55281678336189088
302.49824794351104629
302.43306966231949673
302.36492456233378334
302.30106575735538854
302.24912548560814685
302.21456787635429464
302.20114435644052264
302.20961789773838291
302.23799478442413147
302.28234106376930868
302.33739187986373054
302.39829451621159251
302.46104053819539104
302.52267551045548544
302.58072914200874948
302.63283563806976417
302.67626207330454235
302.70806496638084582
302.72495803183198859
302.72394825359282322
302.70272803468122902
302.65983751365195076
302.59466850797417692
302.50768407420457606
302.40054759334208256
302.27599596401245208
302.13765088731469177
301.98993216845633469
301.83767306358384985
301.68558134007702165
301.53774466485685934
301.3970992048088533
301.26529289544686208
301.14315003952447114
301.03116737479064113
300.93024656850593601
300.84180982984639741
300.76771437641536977
300.70984346013841559
300.6695323046321846
300.64631947928853606
300.63690457863879146
300.63667674880338154
300.64084916249544222
300.64499467466038141
300.64644310157274276
300.64467684053983021
300.64109876503863461
300.63784440184269897
300.63613049756105511
300.63608108435767008
300.63558982143257481
300.63174438417553347
300.62204383978433953
300.60529239409476077
300.58244673135567382
300.55641768189252616
300.5310700274779947
300.51002514893866646
300.49580530759465091
300.48951174235355666
300.49094224908321848
300.49913024717375265
300.51300853167964533
300.53179537703272217
300.55497985121911597
300.58207808628998237
300.61188533008487411
300.64203476328606257
300.66916838326795869
300.68982040810266199
300.70126261690694491
300.70231421343424927
300.69364956359851249
300.67760917760301709
300.65756929678684628
300.63703936064257505
300.6189252784187147
300.60498900442178183
300.59577761836544596
300.5909375489403601
300.58970079841645884
300.59135367163503361
300.59530831430140552
300.60116853843680929
300.60849749780362572
300.6166689872201232
300.624941622947631
300.63247886166800527
300.63869583206121661
300.64344684793553597
300.64688471336461362
300.64920386898342031
300.65048464497732539
300.65036761311040436
300.64821588672981534
300.64327421012546893
300.63518541773999004
300.62423226763479533
300.6112396924649488
300.5974897956380687
300.58436983586159386
300.57303253069812854
300.56415554763361797
300.55795575379818274
300.55433012696948936
300.55308659796304482
300.55422709321288721
300.55796566925926072
300.56452354401960747
300.57388492562114379
300.58559711960634786
300.5988341771630985
300.61239038919734412
300.6249668230784664
300.63545928254836781
300.64331153255869822
300.64858479797317159
300.65189064556722087
300.65422183593716454
300.65662909693514848
300.65981492455966873
300.66399162544558976
300.66866947427513423
300.67282344642580938
300.67527922097315241
300.67514459517667547
300.67200055305301021
300.66605984013585839
300.6581771179368161
300.6496915402917125
300.64227365360716249
300.63740460459121095
300.63617494391075979
300.63907180735481006
300.64606656591757883
300.65669739609302269
300.67021820697613066
300.68583303712136967
300.70263108578751599
300.71972724050090164
300.73641384245951258
300.75216661199283408
300.76657080543208167
300.77916313215763466
300.78949398655589675
300.79726003017793801
300.80226575777101061
300.80444605776682465
300.80406757912425064
300.80176826925156774
300.79837123733034332
300.7946957634732712
300.79139422891387312
300.78884040389198162
300.78715220246402851
300.78622078747525848
300.78570597145056809
300.78511617108136988
300.78392341538636856
300.01387192882367572
300.16627545806045418
300.22180477702431745
300.13779832757808208
300.02402080456840849
299.87465226894875059
299.83493498770985752
299.88701451222374317
299.90235221640443797
299.93765586304709814
299.97995121217195447
300.00414222673316544
300.08337249345981945
300.19536890566229204
300.2017936381833465
300.08832921508377467
300.01782099995403996
300.06473686728190842
300.16014910547721684
300.25828324943728376
300.33895649972220099
300.33597364819195263
300.23075377869270142
300.12215135378602326
300.09678545201637689
300.09922434839842253
300.0582663245241406
299.99932257816612946
299.96589811583049823
299.96512916857994924
300.01164438525449896
300.10584269552907699
300.19687037795080187
300.23980091376267865
300.25430152493794367
300.27457775332499068
300.29460740659408202
300.30557652591562601
300.3014088764338112
300.29082580295926164
300.27608047146122772
300.26269454624139144
300.26786834990224406
300.29865125775842216
300.34043452518659478
300.3653369069605219
300.36232632796651387
300.34549459765202073
300.33774874388586795
300.34470975626027212
300.35775120698019691
300.37194761216511552
300.39529576241181985
300.43185041980336791
300.47504722824902501
300.51228643006214725
300.52975495898641611
300.51378647538990663
300.47115426866741927
300.43727838208019421
300.45015262426665004
300.51924327029041706
300.6160730336572442
300.68785048803925974
300.69087626188661488
300.62831579820021943
300.55416990502357066
300.53057742720795886
300.57844214649048808
300.66928522525415701
300.75904254229823209
300.82127248284621146
300.8533556358278247
300.86266871599838169
300.85141098595278208
300.82308312976226716
300.79259133676532656
300.78503767677284486
300.8175450776964226
300.88030375475096889
300.94714140747157671
300.99341650152359762
301.00807000713837169
300.99504989579037328
300.96911946575153252
300.95120474699274382
300.95902906607574323
300.99466346857167309
301.04435170101885433
301.09151946758464646
301.12796988754672611
301.15458698613571187
301.17319352779713881
301.1815429519028271
301.1742097090561856
301.15648778625387649
301.14662330493905529
301.16757478342117338
301.22807389182855786
301.31426022585247892
301.39582899828462814
301.44880401036766671
301.46672122884655209
301.4558366780301526
301.42283423336419901
301.37182508265351544
301.31363116622122789
301.27067614899164028
301.26560025602140058
301.30858975232280272
301.3859891330068308
301.46495872042004294
301.51270348565384438
301.51473301072763888
301.48227460803605027
301.44294963242617769
301.42226299342740958
301.42988728043434321
301.45899413156462288
301.49386781759466203
301.52075721070434611
301.53126133064483838
301.52048896986991622
301.48749405216773312
301.43558846722419275
301.37643712772342042
301.32765600777042891
301.3050308900348
301.31626788979593812
301.35822091390213018
301.41882691991440879
301.48094429076775214
301.52735458861178586
301.54733344422106711
301.54133474611103338
301.52102287463424091
301.49880894978565493
301.48106282067425354
301.4702187067227328
301.47121038721417108
301.4911759882634783
301.53349633035560373
301.59059125654107447
301.64457238826054208
301.67772691173280464
301.68238585012056774
301.66500922233768733
301.64144793963549773
301.62578767852176043
301.62337461414040263
301.62970729303333428
301.63598573120759738
301.63559335789534543
301.62688323813489433
301.61285424926467158
301.59858104556445824
301.58914207113843986
301.59079501648261612
301.61107567678391206
301.65581327806859235
301.72578630867229776
301.81179919291906799
301.89563850434041115
301.95684447546102547
301.98190789642745813
301.97092819636009153
301.93805857947057802
301.90175892345706643
301.87622715391000838
301.86592129830768272
301.86753119032516679
301.8752117830679822
301.88466102048823814
301.89430863181115683
301.90392409124626738
301.91169725335652174
301.9129529194111683
301.90309942961096112
301.88346145742048066
301.86466941280809806
301.86415623606637837
301.89754968298097992
301.97020311783938951
302.07136765847383231
302.17626104708779167
302.25657996743677813
302.29280634589491683
302.28234662357544948
302.23876702048619336
302.42676023826368237
302.45536315158148
302.48059505210443376
302.49768231993499512
302.5052893826244258
302.50528281539538966
302.50118149450815963
302.49808126941849196
302.50143873691558838
302.5148455011420765
302.53835084973644598
302.56774098772490333
302.59551801378131586
302.61335038029881161
302.6153012251219252
302.59932699117501897
302.567945731507848
302.5261395968689726
302.47924108104348306
302.43249292299498165
302.39105557169506255
302.35948651487279903
302.34155768286819921
302.33876546140709252
302.35016922227288205
302.37265516334178983
302.4010950677250662
302.43074888335860351
302.45768531857066819
302.47852142808591225
302.49049964405128321
302.49217886057323312
302.48406423281534217
302.46915128063284328
302.45196316556251759
302.43774450171275703
302.43026073626839434
302.43087085763778532
302.43735414447633048
302.44496048750033879
302.4487774316015134
302.44576586834051568
302.43587346291349149
302.42210425173539079
302.40930132916321327
302.40263895864978849
302.40585866706209117
302.42044660417161595
302.44530681319139376
302.47702280660291763
302.51105448214991611
302.54298442277530512
302.56991765548775675
302.59138853166450644
302.60947858988993175
302.62752080162391621
302.64774522358334252
302.66961264806360532
302.68863074127597201
302.69715564380931028
302.68722336281183516
302.65416827824219581
302.59915483930609525
302.53035623370669782
302.46115311048862395
302.40708420563350955
302.38154506958579759
302.3925489015656467
302.44105727356947
302.52118672257824983
302.62219526541690584
302.73070180085159109
302.83338061692319343
302.91862670690062487
302.97740768529024535
303.00421218560785519
302.99672944517226369
302.9562502885398203
302.88747414266913438
302.79847620310141565
302.69955085127827488
302.60242319032585101
302.51817504677751458
302.45601904314196418
302.42160049421977419
302.4162984075800864
302.43675220838105133
302.47622168219237437
302.5254000451121783
302.57418724988275471
302.61286806681647477
302.63416951761593054
302.63360407470514701
302.60959066275620444
302.56375954371355874
302.50076131266047241
302.4274735134146681
302.3522431342706227
302.28374599212111207
302.23021614389887191
302.19763491714428483
302.18960277890101906
302.20651246442457705
302.24548575722218402
302.30151063827838698
302.36835853863601642
302.44031832279870287
302.51292811475639155
302.58295368068974085
302.64810586115407887
302.70546429677699507
302.75270961315760587
302.78598700679077638
302.80159282899836626
302.79631768268370706
302.76787832558477476
302.71517087356812681
302.63847361243182377
302.53929934799612056
302.42003018680173909
302.28444900440399579
302.13683194734602466
301.98206627547438075
301.8251670602720651
301.67083075439137474
301.52289948402875552
301.3840001853634476
301.25561054887299406
301.13821307804340677
301.03189036224097208
300.93709238889096014
300.85517093695170843
300.78771423840328225
300.73607880485644728
300.70028296200899831
300.67850728903960089
300.66792232844409227
300.6641176004842464
300.66259870482593897
300.65993890657779275
300.65482223618153057
300.64798873735333018
300.64147564776482113
300.63761828210175509
300.63720699327836883
300.63928962214703233
300.64132625690859868
300.63965585666073821
300.63151647008140799
300.61600045286434124
300.59430324649423483
300.56945259138518622
300.54532458493048352
300.52537401898547387
300.51181811265780652
300.50532027146402925
300.50545449623086824
300.51138407066969194
300.52239547732364144
300.53826991164254423
300.55905587408955171
300.58453291759013837
300.61347552873166933
300.64329527174072609
300.67040502648222855
300.69096270404662619
300.70209507994042042
300.70271267077572475
300.69385651337205445
300.67832303597532473
300.65976640200165093
300.64178801770344762
300.62700434855463527
300.61657093201398538
300.61054207046953479
300.6080767677555059
300.60807819779466854
300.60975570117545885
300.61279326693312441
300.61717160130615412
300.62292443832347999
300.62988743584867279
300.6375395867514726
300.64512144963362061
300.65188272816038761
300.65728765196428185
300.66109639505356199
300.66324294758192082
300.6635789515581223
300.66184665623160299
300.65767509881948172
300.65071865436692633
300.64099592756554102
300.62916949185682824
300.61635959242391891
300.6038811463643583
300.5928626686366556
300.58403093664941252
300.57754977149500064
300.5731248857247806
300.57035518958258535
300.56895776313427859
300.56900035392567361
300.57093149816768118
300.57539099370785607
300.58275735396313166
300.5928595312240077
300.60486130553948669
300.61754459987628252
300.62954417676411367
300.63967649662623671
300.64734725340031218
300.65265881983367535
300.65631392871881644
300.65931283212137259
300.66275816425434186
300.66736746971065486
300.67328490966059462
300.68000055535509318
300.68643046122252827
300.6911675595882798
300.69293699461286451
300.69105454981973935
300.68554126499617496
300.67713187855832757
300.66721345410593358
300.65750030125627745
300.64975101848466466
300.64541343213073787
300.64538968329287627
300.64987005280789845
300.65841900994161051
300.6701414672638748
300.68393914841692549
300.69879719652141148
300.71385281582973903
300.72845912185715633
300.74216911956472131
300.75466579425034297
300.76576608757034137
300.77525052911829562
300.78279614439043144
300.78815636377345299
300.79115445467402878
300.79171604536151108
300.79010613773067462
300.78691396050675166
300.78291378162555247
300.77893386172507917
300.77564919370553298
300.77344641378493861
300.77245978841762053
300.7725996867811773
300.77355263852160761
300.77483763730572264
300.13033672126778129
300.32662788720250546
300.23829664506627068
300.07575743772122223
299.91795535620400415
299.87386025475166207
299.97871672684669875
300.01492923668075719
299.97093530730433031
300.02627489353415058
300.1301558156686724
300.17000452843439007
300.1871721764792369
300.23245583066255904
300.22255697367694438
300.14731821397668909
300.12732125653781168
300.19055952091980544
300.24321915061807431
300.27276280852277068
300.33266191638318787
300.35708656006983119
300.27099613959046565
300.15817544456660926
300.12536942805195395
300.13068037457003356
300.0872533647390128
300.00957330798860312
299.96133940639185766
299.97019488977934998
300.03102586863070655
300.12768054069493928
300.22129246417773629
300.28266532793645638
300.3081688658190842
300.31332427304187149
300.30789669327151614
300.29913756713528983
300.29108238916711571
300.27848987107728362
300.25440071521319396
300.23231752236046077
300.23755773381941481
300.28053062763899561
300.33871562113040454
300.37799169187809412
300.38662428322305686
300.37628678173928165
300.35692433104719612
300.33457569858995839
300.31625134843181968
300.31422709339437915
300.33866997548199151
300.386341233179337
300.44090366415753124
300.48539823905161938
300.50880915895953649
300.49976717199808718
300.46461575099101537
300.43577418684310487
300.44711836754174783
300.51033300604700571
300.60559250525403741
300.68613648217535683
300.7030951855296621
300.64635377801101868
300.56186259553396667
300.51814273732509264
300.55213591353020774
300.64439362589251914
300.74495027468879016
300.81330611229901706
300.83970732184002372
300.83453515329659922
300.81175092678961391
300.78407328039384083
300.76737259632881205
300.77771634470803974
300.82098513622798919
300.88465863379576604
300.94456371602393574
300.98118076376243835
300.98829264772012948
300.97277974687290225
300.95076974090750355
300.93983244519478149
300.95081239335763712
300.98171497190861601
301.02418231605992105
301.06936344605213662
301.11133086656747082
301.1453277451894337
301.1686020397471566
301.18020059775898289
301.18082520062273488
301.17559584173466192
301.17730253945001095
301.20454646136306565
301.26612510493833952
301.34806932423856551
301.41977217046292026
301.45634132740161704
301.45407455037911859
301.42462865353490997
301.38109787610875401
301.33220168781218717
301.28829378901252767
301.26727195976968687
301.28570279501593632
301.34619205155007649
301.42919208970596401
301.50083941955875844
301.53040906689511758
301.51049988773490895
301.45981148333169131
301.41308179880036278
301.3992660260159937
301.42482900543603819
301.47522405246900234
301.52670797421757243
301.55985854076783426
301.56560736678954981
301.54252122238693801
301.49488851651091181
301.43306993527193072
301.37403043613750242
301.33474771288018701
301.32468788572350604
301.34571516742704489
301.39178956774242124
301.4521317344884892
301.51065454304756486
301.55055327836777224
301.56004496192684883
301.54500681571164478
301.52260633189735017
301.50729679353855772
301.50332610979768333
301.50718068843974606
301.51735491770864428
301.53715301220665879
301.56930682590484594
301.60925742680728945
301.64509547729522865
301.6645870081485441
301.66388387877731247
301.64954141739855231
301.63353833562860018
301.6263251757380317
301.63025497477923409
301.63953427230751458
301.64575513716886235
301.64313950889902571
301.63091879580429122
301.61304630920193404
301.59681914415648407
301.58962653559706268
301.59905423660325141
301.6320073719095376
301.69121529071907162
301.7720770585997343
301.86024475317901761
301.93491894755334215
301.97783857670054886
301.98132431569121081
301.9519913842585197
301.90861562202741197
301.87091061780159862
301.85182710320771093
301.85202769444845217
301.86580403913228565
301.88463606032490816
301.90210025369430014
301.91536479892630496
301.92422371434940942
301.92781529754950043
301.92361760107957025
301.91007961821117078
301.89127736806665325
301.87902118501352788
301.89001460881502226
301.93628906821771807
302.018283419118859
302.12106879270049831
302.21912734064193273
302.28665701002273636
302.30872877290784118
302.28707774689155485
302.23842317375493849
302.45223503848490054
302.47556974579345024
302.4965274235371453
302.51008205152862729
302.513652846762227
302.50828515955026887
302.49820284364750478
302.48974769924399197
302.48958712713192654
302.50190517110354449
302.52628700662592109
302.55735674879446151
302.5865333302681961
302.60548661217461586
302.60867923818483405
302.59525891775399487
302.56750344028455402
302.53020184349929877
302.48807730529966875
302.44537235813919551
302.40713848872763947
302.3783808215271165
302.36242523866661713
302.36027278252277029
302.37043948392931725
302.38905204223891587
302.41158875971871112
302.43452870941092669
302.45574916971935409
302.47338743746348655
302.48533220062950022
302.48965529823703946
302.48518650267396879
302.47290577295933645
302.45595629579486285
302.43944291059892748
302.42808986713492914
302.42467467066660447
302.42874205566192813
302.43646880769995278
302.44313550970298365
302.44525676233041622
302.44169067134498619
302.43460978100131342
302.42830656573073611
302.42737297418568687
302.43515219182268083
302.45272502722383479
302.47843319378694105
302.50844207238179706
302.53815278716569992
302.5632146010389647
302.58117272442359535
302.59235573979316314
302.59965607215031014
302.60738909271810826
302.61924401460606759
302.63570622311351599
302.6533927187438735
302.66511214143781672
302.66287561904312042
302.64100306712447264
302.59877193175100274
302.54203977816393945
302.48225936671735781
302.43352801447997535
302.40881496913186766
302.41648030405832515
302.4583910800225226
302.52924779860217086
302.61933376033636023
302.71677569084931747
302.80972397619785852
302.88775894692906832
302.9427048058374794
302.96935693556531533
302.96491676158973405
302.92966537881937938
302.86703041122279956
302.78400629235494534
302.69042375738814599
302.59789962098545857
302.51847211931362835
302.46214436731798969
302.43512696005871021
302.43811632798974642
302.46608110691147431
302.51007967361306328
302.55928429622980502
302.60288014052235894
302.63245791804570217
302.6423995782744214
302.63036998272787059
302.59712720355821602
302.54559883077513405
302.48061859790630024
302.40844535778364843
302.33648566156171
302.27273049491390111
302.22420514536048586
302.19702403625865372
302.1945652534338933
302.21704408627618932
302.26174098538717772
302.32324122908704567
302.39546597068749634
302.47214961545682854
302.54826747278514176
302.62001470786168511
302.68513983408985268
302.74201147807877987
302.78680657438718526
302.8166017653243216
302.82836364689688935
302.81907956597154907
302.78647851610998032
302.72936772155554763
302.64764327239259956
302.54241768617242769
302.41620905437287092
302.27232939170005466
302.11538263909147872
301.95060616060442271
301.78358017653329171
301.61967550236641955
301.46346928290824962
301.31831346408813488
301.18620111470244183
301.06795525278789682
300.9638753673104361
300.87429360614396501
300.79978404946041337
300.74098745032927127
300.69824856534114588
300.67080746079540177
300.65659405684112926
300.65215064106934051
300.65291367510934606
300.65458435942491633
300.65430716810612921
300.65118240775109371
300.6463310288228854
300.64173053238909006
300.63900643690521974
300.63879428241517644
300.63958231900522833
300.63891528630233552
300.63382209212335283
300.62226966628270475
300.60435242265094757
300.58196191372212525
300.55831161013179553
300.53708926279392699
300.52125685207590777
300.51228014003601174
300.51011290538372123
300.51378633804978335
300.52214681110615402
300.53456197310470088
300.5510137719135173
300.57171696488023827
300.59634670429062453
300.6234402295685868
300.65040608678282297
300.67379291545387332
300.69021407035546645
300.69736868583623846
300.69487467864092878
300.68445637862322428
300.66932715969107903
300.65318436412593428
300.63924713132558963
300.62941379465581804
300.62416009028515873
300.6227540728861527
300.62378416560102323
300.6259744878627771
300.6285023422886411
300.63121603963907091
300.63443750812933786
300.63855743001562359
300.64380868439150163
300.64991853135023803
300.65630958843865983
300.6621939544947395
300.66685267559131489
300.66986033340123186
300.67097809132150132
300.67000378273081651
300.66674808413785058
300.6610802732184311
300.65307107952531851
300.64305279140671701
300.63179204516245591
300.62045980406003309
300.6102535822376467
300.60203916906846189
300.59619649831751076
300.59253926083596298
300.59054091229916139
300.58967809795313997
300.58968923779332272
300.59066709136578766
300.59299443282156972
300.59723803403085185
300.603783916600662
300.61250897994045772
300.62266526040855297
300.63302564906496173
300.64237070320803014
300.64986348325055587
300.65519991312072534
300.65876520103859093
300.66145016327664052
300.6643811933025745
300.66853322496308465
300.6744875187650905
300.68217386765974197
300.69082751826772437
300.69920709207519849
300.70582539951089984
300.70925886508643998
300.70850492480076355
300.70334754061400417
300.69444269963247507
300.68318555889521804
300.67141144188195767
300.66104337194911977
300.65370263036010101
300.65042817562203936
300.65162164239291087
300.65704348386469746
300.66594946127906951
300.67726597548784184
300.68985485573034566
300.70284662062243797
300.71564606624508542
300.72790720239231632
300.73935676079230461
300.74965207647267107
300.758485861745271
300.76552886156326849
300.77042078247575319
300.77301553329880335
300.77338611191288464
300.77175528419587636
300.76860260308126271
300.76461457611901551
300.76051902622191392
300.7570518731440643
300.7547917632299459
300.75398575888664254
300.7546160881599917
300.75648606684859487
300.7592442275523581
300.76246303549663708
300.08756561459870227
300.01629539705510297
300.21162155454231879
300.21543727257397904
300.01818198614591893
299.9467269163912988
300.02461569949605291
300.01861466641446441
299.99512142684920946