/*--------------------------------*- C++ -*----------------------------------*\
  =========                 |
  \\      /  F ield         | OpenFOAM: The Open Source CFD Toolbox
   \\    /   O peration     | Website:  https://openfoam.org
    \\  /    A nd           | Version:  12
     \\/     M anipulation  |
\*---------------------------------------------------------------------------*/
FoamFile
{
    format      ascii;
    class       volScalarField;
    location    "0.00512";
    object      alphat;
}
// * * * * * * * * * * * * * * * * * * * * * * * * * * * * * * * * * * * * * //

dimensions      [1 -1 -1 0 0 0 0];

internalField   nonuniform List<scalar> 
75962
(
6.2043065972542078667e-07
7.4629863916109898826e-07
8.3443352373874694123e-07
8.7072452156395018801e-07
9.1422765778744007551e-07
1.0175413985581629819e-06
1.1970793235112887827e-06
1.3118680751295503133e-06
1.371235215199540682e-06
1.4419749501719075572e-06
1.5590010398188619889e-06
1.6962887232594650689e-06
1.8058338638449543831e-06
1.885117534554697773e-06
1.962336070708499457e-06
2.0696040452579810488e-06
2.2081620004470213172e-06
2.3345674732571076577e-06
2.4110735323408001105e-06
2.4492632324239726282e-06
2.4970326303113963879e-06
2.5917281274284764498e-06
2.7109337005734417464e-06
2.816616052834386802e-06
2.8848337919795480415e-06
2.9234840847582968378e-06
2.9723679225836052897e-06
3.0743622629232865144e-06
3.2343632679961435201e-06
3.4126480867795929196e-06
3.5611028677970448833e-06
3.6623077776642260968e-06
3.7346440728695233563e-06
3.8010524523569085691e-06
3.8625809821967800711e-06
3.9056911874024160823e-06
3.9282636257020723831e-06
3.9475147788951816185e-06
3.9851308636034262829e-06
4.0848423405503377469e-06
4.2540711451599718071e-06
4.3843002251074028976e-06
4.4525980505863965297e-06
4.4890112715940805785e-06
4.5551187470347090236e-06
4.7476112024662508269e-06
5.1573238403074134827e-06
5.4462103955055297626e-06
5.5674447532179164569e-06
5.5852868195326544015e-06
5.5755674598941096001e-06
5.553847362195278097e-06
5.5423773943116103174e-06
5.5415750056299666537e-06
5.5492824538256624604e-06
5.5853905334827759469e-06
5.7124029347979240822e-06
5.8653027867026707193e-06
5.9417182630911662377e-06
5.9556097823342607017e-06
5.9484927262412518902e-06
5.9477994013765704003e-06
5.9890026079146096538e-06
6.1401195936821208329e-06
6.3021242462788646849e-06
6.4205257946873036596e-06
6.5139424738476333073e-06
6.5868822774158037814e-06
6.6334817492429975168e-06
6.6552521325004194871e-06
6.6717088303404666484e-06
6.7104733015040464222e-06
6.8506968280182504254e-06
7.2447083967982834794e-06
7.579235884992861888e-06
7.7342694038150293714e-06
7.7654121084710626505e-06
7.7531089975082848449e-06
7.7315109751070574547e-06
7.7312447705890251974e-06
7.7880815514302873529e-06
8.0150374449677251983e-06
8.2566867912168422533e-06
8.3769129651434489693e-06
8.4068830343588793935e-06
8.4003151671160201415e-06
8.3919810621663110974e-06
8.3995738093528097423e-06
8.4579227634911135537e-06
8.5173764730610334526e-06
8.5218162774172382122e-06
8.4931964750286816762e-06
8.4141835745029137125e-06
8.378592524317486699e-06
8.376953590828712477e-06
8.4267140536630270908e-06
8.5575082699609597754e-06
8.6375009332386089588e-06
8.6695457279775693302e-06
8.6765133811496165169e-06
8.6727516067212555393e-06
8.6651113124737283829e-06
8.6540906091805594691e-06
8.6380252034190121389e-06
8.6150576806845708766e-06
8.5956140907497575592e-06
8.5817400719730999525e-06
8.5730180570590276944e-06
8.568336306706314485e-06
8.574247436588101456e-06
8.6112503804199962392e-06
8.6821912343920956088e-06
8.7339137499496053959e-06
8.7705779225127197335e-06
8.8072050493156232517e-06
8.8556379782517558573e-06
8.9166323129722191237e-06
8.980968990922491327e-06
9.0356628892571601595e-06
9.0721245996245316955e-06
9.0903453428553757641e-06
9.0990035884039969518e-06
9.1098340701520006264e-06
9.1344701662514780953e-06
9.1959634144278644809e-06
9.2805937193383459416e-06
9.3591705067605996456e-06
9.4224732039642388934e-06
9.4681805266713448866e-06
9.5012668832470416325e-06
9.5310298829622536442e-06
9.5649479894924581928e-06
9.6060672669889684303e-06
9.65177896184115611e-06
9.6961833632665802381e-06
9.7332459196506183554e-06
9.75939948345271373e-06
9.7763286913823403988e-06
9.7891248106620130085e-06
9.8052767567996303595e-06
9.8322947662490477411e-06
9.874553275875420718e-06
9.9318744893887024009e-06
1.0000037990329660066e-05
1.007147074762298164e-05
1.0137773095475601453e-05
1.0191713075749258527e-05
1.0229558373481899858e-05
1.0252023248835968053e-05
1.0263762770206304338e-05
1.0272015166639573649e-05
1.0283591509157928134e-05
1.0303874948968351683e-05
1.0334814776026241031e-05
1.0375589572190413109e-05
1.0423252355254685733e-05
1.0474216067072624994e-05
1.0524264532195347672e-05
1.0569520814474338125e-05
1.060739272597673407e-05
1.0636183525758414e-05
1.0656933766480142605e-05
1.0672451756932810072e-05
1.0686433726866976788e-05
1.0703102990965354246e-05
1.0724884920382816482e-05
1.0753093505345370123e-05
1.0787846865357726933e-05
1.0827934801168699792e-05
1.0871386730072233001e-05
1.0916260809425412578e-05
1.0960978801609374384e-05
1.1004284484846782094e-05
1.1044705408773929377e-05
1.1081203692587737676e-05
1.1113019975115666038e-05
1.1138793681211038502e-05
1.1157821953207498126e-05
1.1170203725022909773e-05
1.1176332329275016247e-05
1.1177495028206331604e-05
1.1175063491604420447e-05
1.1170158129686719525e-05
1.1163387195055734719e-05
1.1155207576302694739e-05
1.1146115783838532199e-05
1.1136532781934846786e-05
1.1126606732292989308e-05
1.0596644066224662656e-05
1.0581402859324444453e-05
1.0565804536714606187e-05
1.055072262563270975e-05
1.0536783800535787472e-05
1.0524066347339361806e-05
1.0512105169746462311e-05
1.050035377291635317e-05
1.0488571764714792791e-05
1.0476898813374843679e-05
1.0465537794885293942e-05
1.0454518501835215682e-05
1.0443629270294012686e-05
1.0432524831674296284e-05
1.0420787190838245556e-05
1.0408144687897448699e-05
1.0394641706099037485e-05
1.0380704058350984713e-05
1.0366835517370693364e-05
1.0353407010547886814e-05
1.0340533175444132507e-05
1.0328235921281539171e-05
1.0316386401075162456e-05
1.0304823012796465124e-05
1.0293269948955485377e-05
1.0281635957613809038e-05
1.0269863037275497663e-05
1.0258073585667731623e-05
1.0246230427860323516e-05
1.0234431763670839006e-05
1.0222599426389365377e-05
1.0210853050041568654e-05
1.0199013899970231996e-05
1.0187098250128555517e-05
1.0174833701087576153e-05
1.0162318523628920746e-05
1.0149358932094018404e-05
1.0136083162224190078e-05
1.0122210344521242564e-05
1.010788642860412987e-05
1.0093044289677966663e-05
1.0078222128507455886e-05
1.0063653651846257486e-05
1.0049918908663799067e-05
1.0036909838558795996e-05
1.0024696767646296884e-05
1.001258238184772667e-05
1.0000423581394556302e-05
9.9876666235922520519e-06
9.9746522494357106554e-06
9.9612308722804608559e-06
9.9480265695839983111e-06
9.9349706108603174607e-06
9.9225939832983812956e-06
9.9105228283722146868e-06
9.8989233872480159314e-06
9.8871720902909076921e-06
9.8754715176906482756e-06
9.8633643894946051685e-06
9.8513116772456521834e-06
9.839129842145609195e-06
9.8275090873641046988e-06
9.816242444552065102e-06
9.8056381339736109303e-06
9.79490999662588055e-06
9.7840393389129338264e-06
9.7722791941436738691e-06
9.7600738387154541262e-06
9.7471265892753509541e-06
9.73417149959801793e-06
9.7209087310370407312e-06
9.7079203612796880602e-06
9.6946803364907966597e-06
9.6816248991641604756e-06
9.6681662719578682365e-06
9.6549066906241506327e-06
9.641452202022917297e-06
9.6285959024509918709e-06
9.6158473847696211787e-06
9.6037043321398452391e-06
9.5913772413647807797e-06
9.5792985756792386202e-06
9.566874663393734726e-06
9.5548185665591469794e-06
9.5426264575126849664e-06
9.5308602537988988289e-06
9.518736327730018077e-06
9.5066291823625402043e-06
9.4937702825989971766e-06
9.4806410060142447721e-06
9.4666995623141833989e-06
9.4526609688368482351e-06
9.4383142659731318949e-06
9.4245183604576915419e-06
9.4110716021380033642e-06
9.3985292417941107242e-06
9.3863807589598580628e-06
9.3749065713717670274e-06
9.3634445410865723808e-06
9.3522212338327954375e-06
9.3405758138525185624e-06
9.3288793135683247795e-06
9.3167120237132476711e-06
9.304732753064465719e-06
9.2926437109093797931e-06
9.2810942055416691072e-06
9.2695461896648434502e-06
9.2584689776744948461e-06
9.2471191609047641638e-06
9.2359920824939184997e-06
9.2244507307417994191e-06
9.2131545601051147376e-06
9.2014902218349516207e-06
9.1900195450525678809e-06
9.1780483768434307124e-06
9.166128964191830764e-06
9.1536766574579318952e-06
9.1413030604121854231e-06
9.1284824383167530154e-06
9.115831159375267873e-06
9.1028912378967783391e-06
9.0902878940271274443e-06
9.0775948920218939184e-06
9.065417843804285828e-06
9.053333723319687847e-06
9.0418191311632812977e-06
9.0302977168814482561e-06
9.0189884472789614943e-06
9.0073064202180433576e-06
8.9955459461339592244e-06
8.9833342913629527854e-06
8.9710979083889812435e-06
8.9585879543221471781e-06
8.9462566043922693511e-06
8.9339818151345123568e-06
8.9220857807400249129e-06
8.9104182259788945871e-06
8.8991508012168683904e-06
8.8881343680172555672e-06
8.8775047663804845018e-06
8.8670055717908958013e-06
8.8567223241991022207e-06
8.8462275725841136724e-06
8.8356881473429986311e-06
8.8246728340265044062e-06
8.8135314105511039821e-06
8.8019097717597118282e-06
8.7903478342800646871e-06
8.7785696154437187433e-06
8.7671637204739447905e-06
8.7558032564856252099e-06
8.7450235701081032932e-06
8.7343949580199089746e-06
8.7242410962768419648e-06
8.7140771918140775247e-06
8.7039946058773124993e-06
8.6937427600220817042e-06
8.6833660850561001092e-06
8.6728584600083077905e-06
8.6622690834784633201e-06
8.6515822114882512286e-06
8.6410192197563820914e-06
8.6303467161252150116e-06
8.6200635240531649645e-06
8.6097039822555483191e-06
8.5998631762496577347e-06
8.590028218198183263e-06
8.5805680965519028991e-06
8.5711740988194468278e-06
8.5618720063172278355e-06
8.5525754267928682362e-06
8.5431882219808575316e-06
8.5335660695087936023e-06
8.5237575472639217852e-06
8.5135881861675789318e-06
8.5032815923874825314e-06
8.4929212072342393273e-06
8.482649697351323927e-06
8.4728291645896881644e-06
8.4632905012459733792e-06
8.45438406562999262e-06
8.4457271274403861118e-06
8.4373904521277465261e-06
8.4289002964080717869e-06
8.4205115207038771412e-06
8.4114941981835471469e-06
8.4025027325155362043e-06
8.392741973966464408e-06
8.3828860392549125498e-06
8.3724546110823253384e-06
8.3620929500793034575e-06
8.351429509014744718e-06
8.3412233645908261435e-06
8.3307047754203847632e-06
8.3208163774648495956e-06
8.3104380674565704558e-06
8.3006952393142561939e-06
8.2904204027250749865e-06
8.2810136831993616725e-06
8.2712263683735233612e-06
8.2625511037058101794e-06
8.2535559576287570655e-06
8.2455707124186739253e-06
8.236870584135179562e-06
8.2287496772465587791e-06
8.2195911109464714204e-06
8.2108244454902210236e-06
8.2010961524591381732e-06
8.1919948780625719475e-06
8.1820494413730645027e-06
8.1729375810696591232e-06
8.1631791997323926204e-06
8.1543308125237708389e-06
8.1448922332607750059e-06
8.1363765909954243659e-06
8.1270178243736251064e-06
8.1185921275984884932e-06
8.1092182022416178083e-06
8.1008909950158067634e-06
8.0916468946829751802e-06
8.0835711746905934054e-06
8.0744330707136464736e-06
8.0664904504920258301e-06
8.0572793352209722868e-06
8.049074450969674854e-06
8.0393969275838937188e-06
8.0305025369128714532e-06
8.020228719674458862e-06
8.0108732654841891636e-06
8.0004905979817217507e-06
7.9913902711912814436e-06
7.9814350930681976607e-06
7.9729263893493386705e-06
7.9635792736335890758e-06
7.9556825201393496539e-06
7.9468877513413036933e-06
7.9393282055020771736e-06
7.9305959549841721043e-06
7.922950017196557859e-06
7.9138044731294223636e-06
7.9056908332943478244e-06
7.8959806046756153178e-06
7.8872124438383737132e-06
7.8767154954404887862e-06
7.8673124445964974109e-06
7.856271966409046414e-06
7.8465239802142090455e-06
7.8354405702265719687e-06
7.8258734248211078661e-06
7.8150754606827757488e-06
7.805838550990193536e-06
7.7954483216064325942e-06
7.786643209056854178e-06
7.7765774316477627112e-06
5.89671006521859866e-07
7.2595359799716131564e-07
8.5972867638158415836e-07
9.6854570727104886762e-07
1.0561147369245561814e-06
1.1428205576072383643e-06
1.2250025367206406085e-06
1.3106933124972156352e-06
1.4310455784456539902e-06
1.5765007955566610403e-06
1.7031741143365704126e-06
1.7980661873698067947e-06
1.8887677674860542836e-06
1.9969669154115826795e-06
2.1124712922883030601e-06
2.2301527621308426703e-06
2.3506300654447461866e-06
2.4507274292377735501e-06
2.5092710221040787206e-06
2.5471090775277272904e-06
2.6103653308613052883e-06
2.7246957655730462998e-06
2.8652537811868379603e-06
2.9868516633858089345e-06
3.0601535048069893004e-06
3.0925756986325836678e-06
3.1196709427264326192e-06
3.1794365997371832479e-06
3.3201166689743878353e-06
3.5161761592988699839e-06
3.6970827598116866512e-06
3.8332819179877672034e-06
3.9250718469060360519e-06
3.9881404913340185592e-06
4.0319390363594028904e-06
4.0595145380786206021e-06
4.0794677890620913404e-06
4.1113034700944907764e-06
4.1830388563521301649e-06
4.3378470451430025374e-06
4.5068263074829049392e-06
4.6389755936607821025e-06
4.7108488286507995047e-06
4.7443149120555631719e-06
4.7948978483295613134e-06
4.936806222140802942e-06
5.3056336055008525976e-06
5.6232170336136169919e-06
5.7763157712550744461e-06
5.8117385429379035206e-06
5.8059274781222384082e-06
5.7929033162330626075e-06
5.7869524449369273887e-06
5.7882915305023224106e-06
5.7989759110498396839e-06
5.837130716304275855e-06
5.9582419251553216127e-06
6.0993618535527330463e-06
6.1779974514521505716e-06
6.1989358885742788216e-06
6.1956234712505139499e-06
6.1948434867560954394e-06
6.2205717857615349558e-06
6.3400727623309126451e-06
6.5415755899720351476e-06
6.7084865886092439759e-06
6.8467618147259648364e-06
6.9531284263266743099e-06
7.0195581250009149278e-06
7.0494923144380844667e-06
7.0655470646011468987e-06
7.0986738520134948436e-06
7.2173537750243617865e-06
7.5467540196817696894e-06
7.8318074167136971826e-06
7.9721616938993375949e-06
8.0040115724195769111e-06
7.9950196744813524209e-06
7.9847771085489719527e-06
8.0004649465064066902e-06
8.1318402871713978965e-06
8.4837753784964640421e-06
8.7441023288914774365e-06
8.861585791728460843e-06
8.8839600970965240353e-06
8.8743228468894895929e-06
8.8661586419362281873e-06
8.8796195577247723977e-06
8.9611067129533722702e-06
9.0368004705513877827e-06
9.043357513324540707e-06
9.0127927338556584175e-06
8.923725145999683372e-06
8.8818040397974816957e-06
8.8804913164955187041e-06
8.9357262409633087099e-06
9.083506807051982583e-06
9.1711457258391469786e-06
9.202003800528125432e-06
9.205462509179866229e-06
9.2000495506826776056e-06
9.1903991526868315099e-06
9.1724689472351252984e-06
9.1353151663293354897e-06
9.0982793914498084637e-06
9.0762533637618901988e-06
9.0653663710259790729e-06
9.0597197672696513237e-06
9.0712294890010090268e-06
9.1107413693217246105e-06
9.136775000716234406e-06
9.1526228260121251146e-06
9.1723839708206399601e-06
9.2095522620891643358e-06
9.2683353498208580001e-06
9.34117075093526796e-06
9.4145321097770948501e-06
9.4736016369397024024e-06
9.5109536881884442969e-06
9.5288734666568245386e-06
9.5384724327395361822e-06
9.5543564866596568418e-06
9.5910481493229535595e-06
9.649755833543336594e-06
9.7217621085262471829e-06
9.7946569758988941259e-06
9.8579839503269309036e-06
9.9075496763069145561e-06
9.9466000968497969348e-06
9.9822459126917349699e-06
1.0021774204176880322e-05
1.0068829214238647662e-05
1.0121894161672769384e-05
1.0175726163599098755e-05
1.0223926403047854628e-05
1.0260742768915431702e-05
1.0284217438569791104e-05
1.0296827351693129643e-05
1.0304414505252348444e-05
1.0315348756504019742e-05
1.0338048772292338442e-05
1.037785740400205432e-05
1.0436274266130764909e-05
1.050977455131555562e-05
1.0590837517493186554e-05
1.0669543963136076265e-05
1.0735864456115839182e-05
1.0783107454533411669e-05
1.080926810755943946e-05
1.0818146250303644878e-05
1.0818110785267799073e-05
1.0818186759240956273e-05
1.0826566161741870621e-05
1.0853195298781838731e-05
1.0895931760833710977e-05
1.094686260368761641e-05
1.1001249406786278327e-05
1.105482592222389392e-05
1.1103811053762338614e-05
1.1145532728897429272e-05
1.117797114809686617e-05
1.1202053842450099681e-05
1.1220792298761533452e-05
1.1238376068664375219e-05
1.1259178431862452256e-05
1.1285446286545656888e-05
1.131839022587651174e-05
1.13577468636514259e-05
1.1401971458278699958e-05
1.144887368907586063e-05
1.1496649039128622671e-05
1.1544058479628176557e-05
1.1589850403519401836e-05
1.1632682199096488844e-05
1.1671485805483511864e-05
1.17053931051108771e-05
1.1732653603911306507e-05
1.1752497756969348356e-05
1.1765159055703818994e-05
1.1771140507227812396e-05
1.1772132774491498493e-05
1.1769659633647896926e-05
1.1764906729785628097e-05
1.1758392078009368399e-05
1.1750289072339910223e-05
1.1741037687191907096e-05
1.1730752065930184961e-05
1.1718960590479736937e-05
1.1702405858957216518e-05
1.1170566661271191482e-05
1.1155596777847204078e-05
1.1139592047147729839e-05
1.1123369675095961517e-05
1.1107794065965669806e-05
1.1093344569563667759e-05
1.1079953821897944597e-05
1.1067180387739975397e-05
1.1054529638184351574e-05
1.1041767559506633753e-05
1.1029017693840561092e-05
1.1016614780128332633e-05
1.1004765829707648274e-05
1.0993300713994166591e-05
1.0981715198972682345e-05
1.0969444472815845112e-05
1.0956168154635142272e-05
1.0942003278819623644e-05
1.0927467069092180755e-05
1.0913158388084657772e-05
1.089950987359593355e-05
1.0886612086664814234e-05
1.0874341487811492766e-05
1.0862282380884268719e-05
1.085004430733792399e-05
1.0837278091236707405e-05
1.0824083836063759208e-05
1.0810644324474945506e-05
1.0797313343151479731e-05
1.0784126306902144443e-05
1.0771207980780933921e-05
1.0758466483360837795e-05
1.0745961296067630821e-05
1.073350052714980765e-05
1.0721067017790203641e-05
1.0708430362276036667e-05
1.0695584670585263565e-05
1.0682264617172914219e-05
1.0668428275468056402e-05
1.0653806173454184798e-05
1.0638536112756517737e-05
1.062269589789620554e-05
1.0606838078257911461e-05
1.0591334435469642718e-05
1.057674020752057771e-05
1.0563065715848019704e-05
1.055023496536589357e-05
1.0537605136299492761e-05
1.0524842339671873276e-05
1.0511511134317201994e-05
1.0497855360960666401e-05
1.0483943262024616607e-05
1.0470308908689690715e-05
1.0456999245908901624e-05
1.0444278000899497242e-05
1.0431813225431269177e-05
1.0419584475598920751e-05
1.0407152999020542601e-05
1.0394586020723957446e-05
1.0381597842519553341e-05
1.0368523561646468401e-05
1.0355435507547944068e-05
1.0342888415211353898e-05
1.0330851349330333607e-05
1.0319381294942607855e-05
1.0307914441453941258e-05
1.029628762113276467e-05
1.028404912237648012e-05
1.0271335074942077021e-05
1.0257989024550544178e-05
1.0244339439009010661e-05
1.0230357853069661496e-05
1.0216354423500922238e-05
1.0202210309559679073e-05
1.0188092203437213533e-05
1.0173877530672448158e-05
1.0159860049420718029e-05
1.0146069029223171509e-05
1.0132777905993382026e-05
1.0119805040635112653e-05
1.0107119666220995289e-05
1.0094377632371887737e-05
1.0081609902138066251e-05
1.0068767513064196047e-05
1.0056110787400251454e-05
1.0043646955356176547e-05
1.003135499222323511e-05
1.0018853818933672444e-05
1.0005919690601769741e-05
9.9922597445675583505e-06
9.9779679454372605243e-06
9.96309362372802546e-06
9.9480340209636266489e-06
9.9330961641710251457e-06
9.9187642388653143405e-06
9.9052130488155118329e-06
9.8924786209980060831e-06
9.8802662952284798354e-06
9.8682931216891501983e-06
9.8562530422472460529e-06
9.8440187631406562654e-06
9.8314443928476153876e-06
9.8185837189983739308e-06
9.8055043952352586672e-06
9.7925089505398889669e-06
9.7797791685036794345e-06
9.7674964534045139488e-06
9.7555715924127402058e-06
9.7439016624401271016e-06
9.7322336364325096443e-06
9.7205267477039268125e-06
9.7086725116293020942e-06
9.6968657643142163697e-06
9.6850312310637382983e-06
9.6732018829973955167e-06
9.6611311200283425107e-06
9.648751974294127439e-06
9.6359576552198405905e-06
9.6228484412617648066e-06
9.6094664089494910851e-06
9.5959439754474721115e-06
9.5823744655023946763e-06
9.5688624446061898367e-06
9.5555093886320669925e-06
9.5423979995161119417e-06
9.5296082030194584627e-06
9.5171474086107919966e-06
9.5049367166091429322e-06
9.4927797716652710875e-06
9.4805602610770766829e-06
9.4681539166838278571e-06
9.4556250663880416976e-06
9.4429790748131484058e-06
9.4303454576423789739e-06
9.4177124686230846045e-06
9.4052872731270077949e-06
9.3929686181580063567e-06
9.3809640499911750632e-06
9.3691005447920080665e-06
9.3575700658910754103e-06
9.3461702502129210597e-06
9.3349937060809054344e-06
9.3238017022345349766e-06
9.3126179235236521814e-06
9.3012673189059275969e-06
9.289720260785469305e-06
9.2779033777166224886e-06
9.2658070088426066556e-06
9.2535325759507111641e-06
9.2412499107270495925e-06
9.2291245341719262233e-06
9.2172994081846720355e-06
9.2057927746614737164e-06
9.1946726737553548725e-06
9.1837464834749144374e-06
9.1730676723657275873e-06
9.1622254878256004142e-06
9.1514020223657565408e-06
9.1402104971407824102e-06
9.129038090257732716e-06
9.1175754592906955461e-06
9.1061818140748824183e-06
9.0947130701868306011e-06
9.0833449665509498095e-06
9.0721766243498356722e-06
9.0612046448580664711e-06
9.050578488666159336e-06
9.0402604191718496099e-06
9.0301910003151800318e-06
9.0205156250929581627e-06
9.0108192227794708864e-06
9.0014258240113726768e-06
8.9917214322826240349e-06
8.9819872292574470709e-06
8.9717584813834432044e-06
8.961333060274514204e-06
8.9504755936048924675e-06
8.9397179820812850342e-06
8.9288141880853904209e-06
8.9185576503086358782e-06
8.9083627002680604355e-06
8.8990232818622616584e-06
8.8896574656055539769e-06
8.8808814923282610062e-06
8.8717052743921343059e-06
8.8628707618241372361e-06
8.853200934447559079e-06
8.8437200569892892064e-06
8.8332521335840068671e-06
8.8229062425233573423e-06
8.8118660792693782381e-06
8.8011881077570889144e-06
8.7900942295569242153e-06
8.7797537390844409232e-06
8.7689031991167443034e-06
8.7588920085432707608e-06
8.7481659378837373688e-06
8.7381927634401587062e-06
8.7273925027727911275e-06
8.7175332325631136709e-06
8.7069868106160208416e-06
8.6977133882324118998e-06
8.6878730239808797642e-06
8.6792951724096208116e-06
8.6699081940148498276e-06
8.6614129727614688894e-06
8.651803583468288818e-06
8.6429190235451291768e-06
8.6329431100451916057e-06
8.623816457365601659e-06
8.6136443073305672035e-06
8.6043863189706106806e-06
8.5941751036463748888e-06
8.5848640174680703862e-06
8.5746413250094705828e-06
8.5653837541558620216e-06
8.5550481997218460014e-06
8.5458278283622447861e-06
8.535505680458707427e-06
8.5265154201213129556e-06
8.516514070645548492e-06
8.5079001812923644516e-06
8.4981150902451299599e-06
8.4896763521459014105e-06
8.4797513693714923348e-06
8.4709549598469445014e-06
8.4605066093607787304e-06
8.4510835427582275573e-06
8.4401198191425318092e-06
8.4304030702227867287e-06
8.419528858476949741e-06
8.4101558736454737098e-06
8.3997845995657512646e-06
8.3910337712027072707e-06
8.3812795271761621771e-06
8.3731455977003976218e-06
8.3639270177117386421e-06
8.3561580525284922486e-06
8.3470074073091765095e-06
8.3391152515127275408e-06
8.3295760366922645093e-06
8.3212084847463367349e-06
8.3110178384651670319e-06
8.3019462597546592045e-06
8.2908738107527405733e-06
8.2810055091853701655e-06
8.2692441332820681787e-06
8.2589240816859029625e-06
8.2470802061204630945e-06
8.2368650733660737754e-06
8.2252868278890292782e-06
8.2154371721476224862e-06
8.204255881434118679e-06
8.1947871334503433806e-06
8.1839120227152696617e-06
6.5689167545442522445e-07
7.6436490969347129014e-07
8.7715202284847128085e-07
9.6548206220708330567e-07
1.0756510356449186794e-06
1.190577195171006476e-06
1.2796139950353244977e-06
1.3694373852387423269e-06
1.5050735526799863875e-06
1.6643608369376605202e-06
1.7940600716758257826e-06
1.8826972263946189783e-06
1.96563259306905165e-06
2.0785854752220511992e-06
2.211380494619164023e-06
2.3440633501435064029e-06
2.4704378277119635814e-06
2.571639058783837184e-06
2.6300405993472900863e-06
2.6666524671580502814e-06
2.7303037742609829897e-06
2.8490565270023716105e-06
2.9885896140614470307e-06
3.1009933720762678317e-06
3.1646377773330650842e-06
3.2015723929802820187e-06
3.2583291527180032292e-06
3.3846253940003017169e-06
3.595867837955146393e-06
3.8316006648498482251e-06
4.0288325187323818303e-06
4.1488125670975912641e-06
4.1956932824920036392e-06
4.2041200691460326827e-06
4.208201056154067056e-06
4.2192417502116229459e-06
4.2493586465154276419e-06
4.3318803443889421101e-06
4.4694526887621522512e-06
4.6123061404449672783e-06
4.7356588669121349512e-06
4.8197348654318592639e-06
4.8632166224267070641e-06
4.892747060318737443e-06
4.950582933959132155e-06
5.1174025175592747217e-06
5.4922732011646881959e-06
5.7797837209120507117e-06
5.9173271771471015499e-06
5.9505064054978117188e-06
5.949487517651067526e-06
5.9532874230299409631e-06
5.9751585335114895431e-06
6.0349769163334501259e-06
6.1203703783176642482e-06
6.2170469834134357316e-06
6.3120724520775159109e-06
6.3849292763117313721e-06
6.4207414744638586287e-06
6.4252671193768313729e-06
6.4212079754552533727e-06
6.4264898367709933006e-06
6.4841078535890740383e-06
6.6983004599888897537e-06
6.9583171448219466673e-06
7.1440523384395783702e-06
7.2714684877507281598e-06
7.3508562807282196483e-06
7.3906075920727809116e-06
7.4070554195269628603e-06
7.4257019217936482604e-06
7.4805277089941794318e-06
7.702304688157228792e-06
8.1180166356247074702e-06
8.3639480598459195574e-06
8.4449898666769249237e-06
8.4436740404379295873e-06
8.4074204182712372288e-06
8.3798880240168142225e-06
8.3896488860364120299e-06
8.5158291440599298122e-06
8.8949853560512406159e-06
9.1904198968674611487e-06
9.3232601555224216988e-06
9.3501476934103634888e-06
9.3418946321103390481e-06
9.3365992986270562615e-06
9.3598633654088263164e-06
9.4824317465820130767e-06
9.5872599254823622758e-06
9.5986459702578279214e-06
9.5649776369503291293e-06
9.4517403958689378152e-06
9.3829560068811307513e-06
9.372500265590913112e-06
9.3934733440103259793e-06
9.4885915943058812637e-06
9.5774938000997988528e-06
9.6354894368639910928e-06
9.6796622324735160335e-06
9.7122325937766376452e-06
9.7285490469964651687e-06
9.7274209811937376236e-06
9.7169384324430750524e-06
9.696024900434316261e-06
9.6457542146595440821e-06
9.6023038767230286286e-06
9.5806014438503012842e-06
9.5714122645116171939e-06
9.5708023937485175271e-06
9.5958645327518370138e-06
9.6602595403648745294e-06
9.7061389621400058692e-06
9.7297184113531688736e-06
9.7425260558578229478e-06
9.7605214083191507105e-06
9.801239395654123032e-06
9.8840893054044230877e-06
9.9717383010502803908e-06
1.0046448759096015014e-05
1.0103232541494369385e-05
1.0148090896273552139e-05
1.0190434009041354584e-05
1.023671843366779148e-05
1.0287328368981967148e-05
1.0338785205010952585e-05
1.0385919583213702546e-05
1.0426936369835987814e-05
1.0463200290464451917e-05
1.0498603554725125984e-05
1.0537442743440257069e-05
1.0583215637533164495e-05
1.0635805495569334057e-05
1.0692065556040187134e-05
1.0747739093715417434e-05
1.0799071897405217694e-05
1.0844229829105286165e-05
1.0882842420581743443e-05
1.0917368576165763721e-05
1.0951821880852077528e-05
1.0990233612397074425e-05
1.1034922295302744918e-05
1.1085187678695623012e-05
1.1137533817866212998e-05
1.118881681870951815e-05
1.1233981375755146203e-05
1.1270363353353109466e-05
1.1296994731791389714e-05
1.1316344535933270911e-05
1.1333936812811664391e-05
1.1356576738759988386e-05
1.1389889506891250442e-05
1.1435330370861206633e-05
1.1490711395751087713e-05
1.1550597685939832996e-05
1.1609658537048580555e-05
1.1664343853334078276e-05
1.1712139081459677848e-05
1.1751760611755380834e-05
1.178268324466936658e-05
1.1805256037515573657e-05
1.1820924206783257836e-05
1.1833645853714073207e-05
1.1847868737547316358e-05
1.1866886230673898635e-05
1.1892685966579631202e-05
1.1925115537735286753e-05
1.1963167610567808648e-05
1.2005464696908551599e-05
1.2050313018605213571e-05
1.2095615747877055523e-05
1.2140384327734830995e-05
1.21839739472231722e-05
1.2225955094533296467e-05
1.2265161885803753397e-05
1.2300463853589945179e-05
1.2330776765374905311e-05
1.2355094750397131712e-05
1.2372593674063772743e-05
1.2384089085039306401e-05
1.2390817421125721292e-05
1.2393390799847709704e-05
1.2392784562005476775e-05
1.2389261777280861573e-05
1.2383233818526816314e-05
1.2374823103372507445e-05
1.2365135037393296385e-05
1.2354413488770152473e-05
1.2341721857429720902e-05
1.1760686207588858524e-05
1.1745111396466197451e-05
1.1728577346316495147e-05
1.1711911260911461049e-05
1.169588534390900187e-05
1.1680884970077464287e-05
1.1666865425939613961e-05
1.1653471640271246141e-05
1.1640169744819187054e-05
1.1626593691458123568e-05
1.1612795488112361201e-05
1.1599212667593301841e-05
1.1586235851203934038e-05
1.1573877927664427391e-05
1.1561630115746003575e-05
1.154885597325768938e-05
1.1535083638427176547e-05
1.1520434777844984085e-05
1.1505371093794398377e-05
1.1490629373478653528e-05
1.1476598897784761699e-05
1.1463523965268293477e-05
1.1451011964488731998e-05
1.1438575418016313465e-05
1.1425383751136023269e-05
1.1411261894667173506e-05
1.1396226212304968334e-05
1.138094576616340616e-05
1.1365681809961364454e-05
1.1350877526433211646e-05
1.1336460254526578185e-05
1.1322652629355472656e-05
1.1309151462682197345e-05
1.1296012084107845224e-05
1.1282883583970011393e-05
1.1269966833798217545e-05
1.1256867557000020018e-05
1.1243556973920151268e-05
1.1229354942685291832e-05
1.1214308556559900265e-05
1.119813986754850918e-05
1.1181497062477219361e-05
1.1164624789293667846e-05
1.1148431154939701735e-05
1.1132999639190374922e-05
1.1118733740956710106e-05
1.1104977213528113831e-05
1.1091594300933437826e-05
1.1077735746845998415e-05
1.1063642810144516858e-05
1.1049047551721329679e-05
1.1034770092212954387e-05
1.102067290847333533e-05
1.1007380867579748317e-05
1.0994268230955015332e-05
1.0981582158935709564e-05
1.0968525559914712745e-05