/*--------------------------------*- C++ -*----------------------------------*\
  =========                 |
  \\      /  F ield         | OpenFOAM: The Open Source CFD Toolbox
   \\    /   O peration     | Website:  https://openfoam.org
    \\  /    A nd           | Version:  12
     \\/     M anipulation  |
\*---------------------------------------------------------------------------*/
FoamFile
{
    format      ascii;
    class       volScalarField;
    location    "0.00512";
    object      pMean;
}
// * * * * * * * * * * * * * * * * * * * * * * * * * * * * * * * * * * * * * //

dimensions      [1 -1 -2 0 0 0 0];

internalField   nonuniform List<scalar> 
75962
(
98734.590337987508974
98734.781625731004169
98734.398263673720066
98734.013080603952403
98733.781063106216607
98733.527956224905211
98733.159988017534488
98732.69522554834839
98732.209385850976105
98731.753760544335819
98731.278523756482173
98730.750199369591428
98730.202586916770088
98729.646427466039313
98729.073016364156501
98728.507647731705219
98727.990318626078079
98727.513989883533213
98727.024319116884726
98726.478078857820947
98725.903929463791428
98725.347646658163285
98724.80460710679472
98724.247373075020732
98723.681974618899403
98723.150248532852856
98722.666164683774696
98722.192973737895954
98721.692395853649941
98721.171276065302663
98720.654569787729997
98720.150474920606939
98719.658680748048937
98719.176433677726891
98718.677455751312664
98718.142688242776785
98717.578645589266671
98717.021387301341747
98716.494549044713494
98716.004595505670295
98715.552273665816756
98715.130912625550991
98714.728496524883667
98714.340485374370473
98713.97015322560037
98713.615434766936232
98713.265597018398694
98712.916049585415749
98712.575424678550917
98712.249446071014972
98711.930584010988241
98711.611579949269071
98711.301555598271079
98711.002705570106627
98710.69721489281801
98710.368604046219843
98710.021321779917344
98709.671422229541349
98709.324198265458108
98708.98213330769795
98708.649859074503183
98708.323846850500559
98707.986127475145622
98707.62373784360534
98707.250719487390597
98706.900073098120629
98706.594706078569288
98706.326341694701114
98706.063560992493876
98705.780614170711488
98705.481049456240726
98705.189960156567395
98704.928013602708234
98704.691462934977608
98704.461815760078025
98704.225982844815007
98703.98549773398554
98703.748805481911404
98703.514634874431067
98703.271164380566915
98703.008829268612317
98702.734023814351531
98702.467596182381385
98702.228088831936475
98702.022842691279948
98701.849566603341373
98701.697649752168218
98701.550259829513379
98701.389551030573784
98701.20777446066495
98701.010651978009264
98700.810633340806817
98700.612762708376977
98700.412688408207032
98700.202600197662832
98699.979141231466201
98699.746328799403273
98699.510757583077066
98699.277612077217782
98699.051657377771335
98698.841600358719006
98698.657346465042792
98698.50322149231215
98698.37245076673571
98698.250342665676726
98698.124523867649259
98697.991800991629134
98697.854628311979468
98697.713295927125728
98697.563542584233801
98697.401231297975755
98697.228905592404772
98697.056777663252433
98696.89691668546584
98696.755322178229108
98696.629724280894152
98696.511301927821478
98696.390693354711402
98696.264039121131646
98696.134742651309352
98696.008691310998984
98695.887059930551914
98695.763602469771286
98695.629665027940064
98695.482684119939222
98695.330790076128324
98695.188122732724878
98695.064673527114792
98694.959732368879486
98694.86442696195445
98694.768983928879607
98694.668348469902412
98694.563632141260314
98694.459526980368537
98694.360920083272504
98694.269869951807777
98694.184373228898039
98694.098897620235221
98694.006641394473263
98693.901820472587133
98693.781609666708391
98693.646711396737373
98693.50022697733948
98693.344628794118762
98693.180346559325699
98693.007015182942268
98692.827330212909146
98692.649567821616074
98692.485087449778803
98692.342846581086633
98692.224140156162321
98692.122112117882352
98692.025220370152965
98691.923192785456195
98691.810910323853022
98691.687777640196146
98691.55489547426987
98691.413125148043036
98691.263178424778744
98691.106958041404141
98690.948895103560062
98690.795164500465035
98690.650615964521421
98690.515891511618975
98690.387476969262934
98690.259862118182355
98690.12887051650614
98689.994117361158715
98689.859314064087812
98689.730745925451629
98689.615257551922696
98689.518427745293593
98689.442655535618542
98689.385963610533508
98689.342611065017991
98689.304957816770184
98689.26649131209706
98689.224825201628846
98689.18173225694045
98689.14061907393625
98689.104088245818275
98689.073184462395147
98689.04823013296118
98689.030305613574455
98689.021943337604171
98689.02606442666729
98689.043743197791628
98689.072891606789199
98690.711609127029078
98690.720377679012017
98690.741518373484723
98690.774557575263316
98690.815167830311111
98690.857134484453127
98690.894880728927092
98690.925431392053724
98690.948428012430668
98690.964495855470886
98690.973523507665959
98690.974232576249051
98690.965146315284073
98690.945957146701403
98690.918442975846119
98690.886269276772509
98690.853744246880524
98690.824188859376591
98690.798949216899928
98690.777451221860247
98690.757951032777783
98690.738308544881875
98690.716834286839003
98690.692723653366556
98690.666006817104062
98690.637365663511446
98690.607687723415438
98690.57745780046389
98690.546262354633654
98690.512953773592017
98690.476256926529459
98690.435335974951158
98690.390085175240529
98690.341163434131886
98690.28982877706585
98690.237505378594506
98690.185482720757136
98690.135024336879724
98690.087684382961015
98690.045489544136217
98690.010441065620398
98689.983561232947977
98689.964212589751696
98689.949954399169656
98689.937259586004075
98689.922934275062289
98689.905556033336325
98689.886174009938259
98689.867588201144827
98689.852879422265687
98689.844094171610777
98689.841524757546722
98689.843969308582018
98689.849565674929181
98689.856513773222105
98689.863725794959464
98689.871217987136333
98689.880057464441052
98689.891840727985254
98689.907747570294305
98689.927661776309833
98689.949923826556187
98689.971721850582981
98689.990253638563445
98690.003836043455522
98690.012682659988059
98690.01889997543185
98690.025657387959654
98690.035840449490934
98690.051137580172508
98690.071854285619338
98690.097454192538862
98690.127503271272872
98690.162382129361504
98690.203282106420374
98690.251441956497729
98690.307279851549538
98690.3699752465036
98690.437670871964656
98690.508237844245741
98690.580242195064784
98690.653347966639558
98690.727896093085292
98690.804215433527133
98690.882060661067953
98690.960663064441178
98691.03935647115577
98691.118225226498907
98691.198516534612281
98691.282602017687168
98691.373326859582448
98691.473053375186282
98691.58272862508602
98691.701512946907314
98691.827031345150317
98691.956065556558315
98692.085592451170669
98692.213597520021722
98692.339469920218107
98692.463830693566706
98692.587965605896898
98692.71308631564898
98692.839687980609597
98692.967343793308828
98693.094859537406592
98693.220757320625125
98693.343811879953137
98693.463347664743196
98693.579180795801221
98693.691304761479842
98693.799647875071969
98693.904022133443505
98694.00423357609543
98694.100290485730511
98694.192605572156026
98694.282103613266372
98694.370000745970174
98694.457578207686311
98694.546059164684266
98694.636492791949422
98694.729516116320156
98694.825192088988842
98694.922963889563107
98695.021629573166138
98695.119508255666005
98695.214722441713093
98695.305545933035319
98695.390733427950181
98695.469816306518624
98695.543228180787992
98695.612143516162178
98695.678197156186798
98695.74307318929641
98695.80806544785446
98695.873760898117325
98695.939967542464728
98696.005811219583848
98696.069987842827686
98696.131115185518865
98696.18813027680153
98696.240574252646184
98696.28863648029801
98696.333117072659661
98696.375196418186533
98696.41618234901398
98696.457352065306623
98696.499798694188939
98696.544299335451797
98696.591225951866363
98696.640453282627277
98696.69139586178062
98696.743080750195077
98696.794411393231712
98696.844372967578238
98696.892276681013755
98696.937835879420163
98696.981248928394052
98697.023106309905415
98697.064278562073014
98697.10565273022803
98697.147871510125697
98697.191192241036333
98697.23546967812581
98697.280309542824398
98697.325250272391713
98697.369902879479923
98697.413983383812592
98697.457292099352344
98697.499504523002543
98697.540089127753163
98697.578436120893457
98697.614087722147815
98697.646899805986322
98697.677257952323998
98697.706093418659293
98697.734695892970194
98697.764402828135644
98697.796176905510947
98697.830326695446274
98697.866394786673482
98697.903218245934113
98697.939167740609264
98697.97255736067018
98698.002019467865466
98698.026825400418602
98698.047118924441747
98698.06392433817382
98698.07890618230158
98698.093972504822887
98698.110773070613504
98698.130381429320551
98698.153203785957885
98698.179064448006102
98698.20745554077439
98698.237806947159697
98698.269700862569152
98698.302891180268489
98698.337214278959436
98698.372402657827479
98698.4079887035914
98698.443268878021627
98698.477383191304398
98698.509497086735792
98698.539034486617311
98698.56589972540678
98698.590576531685656
98698.614019548665965
98698.637370616299449
98698.661672854432254
98698.687653030166985
98698.715545015889802
98698.745156763179693
98698.776094130123965
98698.808033714449266
98698.840919865193428
98698.87504127259308
98698.91093466556049
98698.949198285030434
98698.990277984019485
98699.034262190456502
98699.080893421574729
98699.129806254437426
98699.180885682173539
98699.234549139073351
98699.291803947417066
98699.354209115219419
98699.423668587362044
98699.502060976446955
98699.590867782506393
98699.690956458449364
98699.802411793672945
98699.924670229607727
98700.056845188330044
98700.197921256709378
98700.346983708979678
98700.503430098557146
98700.667097286815988
98700.838291449763346
98701.017815136234276
98701.206951703148661
98701.407495069113793
98701.621657301409869
98701.851847071840893
98702.100456546933856
98702.369693864093279
98702.661475542568951
98702.97725805574737
98703.317958579180413
98703.684017596344347
98704.075474217403098
98704.492087331367657
98704.933571881003445
98705.399744019843638
98705.890666160281398
98734.876585197969689
98734.889209843167919
98733.689551893374301
98733.446878040165757
98733.395290847562137
98733.150986739681684
98732.722279638110194
98732.259521128391498
98731.801496255706297
98731.32809475697286
98730.816769710261724
98730.272968592718826
98729.715297646529507
98729.15690779023862
98728.612482426673523
98728.092604408418993
98727.603014034830267
98727.139645141010988
98726.666499512823066
98726.147183405526448
98725.607831223649555
98725.07597410796734
98724.540299664993654
98723.98409428136074
98723.429247939900961
98722.919861217145808
98722.458085463207681
98721.99584749279893
98721.493641950466554
98720.958395489768009
98720.418671522274963
98719.898595249542268
98719.40715471826843
98718.927382468362339
98718.420434850922902
98717.86338625184726
98717.281945183203788
98716.71903660047974
98716.194188948749797
98715.710299744503573
98715.26811870149686
98714.860898000304587
98714.465931446145987
98714.071214736119146
98713.688654234210844
98713.329020744553418
98712.983538189742831
98712.639006592915393
98712.298267248814227
98711.967315444038832
98711.641926028212765
98711.31728714586643
98711.00035216746619
98710.690125751279993
98710.372032864383073
98710.035110525815981
98709.685200067906408
98709.333265054941876
98708.984825018924312
98708.643478198093362
98708.316524672947708
98707.999994970406988
98707.675609521538718
98707.332445466978243
98706.982827738247579
98706.656009363257908
98706.372374870872591
98706.122542324708775
98705.873545980328345
98705.598495089274365
98705.301807606927468
98705.013308384353877
98704.756785361270886
98704.527845993303345
98704.302029054000741
98704.059714332557633
98703.803879600964137
98703.550257227339898
98703.30628623116354
98703.064592846858432
98702.81449003785383
98702.557800399197731
98702.309334652774851
98702.085309692804003
98701.893980264401762
98701.732358445369755
98701.586123960878467
98701.436797543035937
98701.271110721791047
98701.087786657823017
98700.896488915153896
98700.706874338560738
98700.520186876659864
98700.330758762531332
98700.129634273645934
98699.912412503937958
98699.683010095919599
98699.450316711561754
98699.222425656000269
98699.005660055991029
98698.806111693746061
98698.630341555835912
98698.482997538754717
98698.358809231081977
98698.243009343990707
98698.121453503903467
98697.988773689081427
98697.850046511623077
98697.710440688417293
98697.569362309470307
98697.422450971018407
98697.269001667547855
98697.115771011784091
98696.973236512159929
98696.847751818830147
98696.737317389925011
98696.632687381614232
98696.523768651662976
98696.40670136816334
98696.285419837600784
98696.167153425703873
98696.055596049889573
98695.947229572455399
98695.833750317804515
98695.708853127420298
98695.574093347953749
98695.437828411406372
98695.308760942411027
98695.19031155052653
98695.079762686204049
98694.971803826570977
98694.862885678390739
98694.753626986406744
98694.648091682858649
98694.550713218559395
98694.462347309541656
98694.378878297604388
98694.292946684654453
98694.196905295670149
98694.085753599079908
98693.95796104609326
98693.814412238396471
98693.657422104850411
98693.489636827027425
98693.313541568684741
98693.132151652287575
98692.951104882347863
98692.779440319514833
98692.627461631564074
98692.50111297116382
98692.397514890850289
98692.305586296104593
98692.211551814369159
98692.105746779227047
98691.986132064237609
98691.856582916065236
98691.721629320934881
98691.582586956283194
98691.438006429249072
98691.286989737563999
98691.132521069564973
98690.980966315284604
98690.837502344103996
98690.702144402777776
98690.570165967175853
98690.435423163129599
98690.293880946992431
98690.146449827429024
98689.999003731456469
98689.859761159983464
98689.736729440555791
98689.635618890533806
98689.557687643202371
98689.499029938466265
98689.452280793353566
98689.40947321751446
98689.365061927921488
98689.318176899323589
98689.271746126687503
98689.229387975865393
98689.193036249474972
98689.16242970636813
98689.136369150393875
98689.114998125078273
98689.100783693778794
98689.097306319483323
98689.106723960649106
98689.128365481315996
98689.158995689358562
98690.817062856542179
98690.815698829464964
98690.823076803208096
98690.84222509789106
98690.872443405663944
98690.909374887385638
98690.947207964360132
98690.981394570029806
98691.009930337488186
98691.032805011884193
98691.050414533630828
98691.061995071999263
98691.065347948795534
98691.058106217169552
98691.039547173233586
98691.011574615273275
98690.978354783452232
98690.94473320695397
98690.914093756873626
98690.887088697738363
98690.861918270253227
98690.83576793888642
98690.806328793463763
98690.772639988586889
98690.735369343630737
98690.696441367108491
98690.658100580199971
98690.621920174147817
98690.588140868945629
98690.555783678952139
98690.523255430147401
98690.488793806362082
98690.450985522547853
98690.409150475534261
98690.363381668939837
98690.314294019291992
98690.262829535815399
98690.210247627313947
98690.158306979676127
98690.109410295714042
98690.066381602577167
98690.031710090101114
98690.006567086951691
98689.99012535403017
98689.979612131151953
98689.971255930009647
98689.96188953287492
98689.950262924932758
98689.937309360975632
98689.925387859868351
98689.916953551044571
98689.913462807249743
98689.914945035474375
98689.920095514884451
98689.927020562958205
98689.934233265012153
98689.941353872927721
98689.949258649969124
98689.95967609732179
98689.974354107514955
98689.994246576534351
98690.018879109426052
98690.046322949870955
98690.073789127287455
98690.098535487646586
98690.118938657135004
98690.135162558435695
98690.149069575374597
98690.163356065473636
98690.180527155796881
98690.202242269340786
98690.229246853268705
98690.261758092223317
98690.300030569633236
98690.344728926967946
98690.39664750159136
98690.456072530039819
98690.522326225182042
98690.593700338882627
98690.668017428848543
98690.743507372142631
98690.819493974588113
98690.896325681707822
98690.974655430531129
98691.054723515480873
98691.136023616330931
98691.21755099274742
98691.298592005958199
98691.37959643965587
98691.462485970216221
98691.550243484802195
98691.645916344758007
98691.751417507621227
98691.866836206027074
98691.990366228492348
98692.118872464241576
98692.248884697197354
98692.377633863565279
98692.50379368592985
98692.627680873905774
98692.750822391230031
98692.875136466725962
98693.002026983347605
98693.131876539977384
98693.263895702344598
98693.396470315885381
98693.527802653363324
98693.656533820350887
98693.782009746035328
98693.904101431427989
98694.022757331578759
98694.137717520032311
98694.248458838221268
98694.354325688531389
98694.454889879198163
98694.550277923306567
98694.641285360601614
98694.729312457158812
98694.816053141767043
98694.903165212308522
98694.99200717000349
98695.083456837310223
98695.177837119656033
98695.274894115194911
98695.373863392233034
98695.47345943817345
98695.571983695524978
98695.667669642964029
98695.759017988253618
98695.845101762111881
98695.925734024654957
98696.001547670733999
98696.073775332057266
98696.143927653771243
98696.21338134589314
98696.282952322682831
98696.352687730948674
98696.421949301817222
98696.489616608829238
98696.554513472452527
98696.615819109982112
98696.673265521501889
98696.727234223086271
98696.778593535156688
98696.828540403585066
98696.878297493225546
98696.92888275522273
98696.981075347517617
98697.035397217900027
98697.092020187221351
98697.150675515542389
98697.210619700214011
98697.270747054339154
98697.329836652832455
98697.386899732009624
98697.441403660952346
98697.493318869455834
98697.543116242697579
98697.591631938659702
98697.639871082603349
98697.688847664278001
98697.739304981703754
98697.791545268541086
98697.845416445168667
98697.900506268910249
98697.9562972089916
98698.012267166443053
98698.067947059360449
98698.122831904052873
98698.176333844239707
98698.227792521691299
98698.276575018680887
98698.322222374787088
98698.364627614209894
98698.404194791961345
98698.441878064681077
98698.478999697690597
98698.516904635194805
98698.556655217558728
98698.598760066364775
98698.643011664738879
98698.688490635337075
98698.733752497006208
98698.777209588617552
98698.817539306546678
98698.854058857177733
98698.886920478995307
98698.917096587465494
98698.946193195384694
98698.975971304622362
98699.007902591867605
98699.042839137968258
98699.080988247587811
98699.122030674072448
98699.165337842394365
98699.210302855339251
98699.256567119256943
98699.304109335571411
98699.3530575716577
98699.403439418834751
98699.455033806530992
98699.507356000569416
98699.559739835836808
98699.61148163046164
98699.662002364450018
98699.711062894348288
98699.75881916716753
98699.805773879808839
98699.852634280236089
98699.900130033231108
98699.948828382577631
98699.999071960395668
98700.051013320568018
98700.104775591375073
98700.160602828953415
98700.218950998125365
98700.280412191117648
98700.345613728975877
98700.414976944535738
98700.488614435394993
98700.566432355233701
98700.648195175075671
98700.733714104237151
98700.823082231276203
98700.916891051296261
98701.016281424483168
98701.122761106758844
98701.237965789900045
98701.363325527796405
98701.499780629877932
98701.647668672914733
98701.806742205808405
98701.976330989011331
98702.155582305917051
98702.343642378458753
98702.53980632670573
98702.743701491010142
98702.955322041161708
98703.175041853901348
98703.403645469268668
98703.642335842829198
98703.892738045295118
98704.156840877258219
98704.436938576967805
98704.735455003450625
98705.054705028640456
98705.396669120265869
98705.762860436501796
98706.154239798997878
98706.571213240837096
98707.013739887668635
98707.481580264371587
98707.974447594373487
98708.492160037116264
98709.034697145994869
98731.254384587678942
98732.528610032444703
98732.334639548455016
98732.141474230986205
98732.066753255814547
98731.826947531080805
98731.490731311481795
98731.240329641339486
98731.003981625399319
98730.66311394496006
98730.233279384236084
98729.747097987958114
98729.204832524308586
98728.653824429566157
98728.149973917636089
98727.683482732289121
98727.222493830951862
98726.75977044661704
98726.288405767845688
98725.790307164890692
98725.273571619589347
98724.750149341794895
98724.220754251960898
98723.690510597545654
98723.182927076210035
98722.708674201305257
98722.252653198753251
98721.781353466052678
98721.274023044141359
98720.738017115014372
98720.195188001802308
98719.670098784627044
98719.171958048216766
98718.674233702899073
98718.142384062666679
98717.580040816304972
98717.020674158295151
98716.489443608923466
98715.985721146062133
98715.507415361600579
98715.061232992942678
98714.651445532406797
98714.261027878994355
98713.871162551979069
98713.486316593713127
98713.117047121821088
98712.756797381924116
98712.393438733721268
98712.030765180694289
98711.683522263076156
98711.351561024057446
98711.024580635639722
98710.698045534038101
98710.371714562061243
98710.043694953143131
98709.709187330430723
98709.368482588528423
98709.023805942604668
98708.678682770230807
98708.340027851649211
98708.017221889240318
98707.709697814076208
98707.403391926622135
98707.086161741652177
98706.765699022827903
98706.462788933131378
98706.192307268007426
98705.946691859324346
98705.699667870852863
98705.428647749082302
98705.138126120218658
98704.853697818063665
98704.598316056566546
98704.369294507312588
98704.1418061862787
98703.893361151480349
98703.625585352579947
98703.357135331025347
98703.103114017358166
98702.863344307857915
98702.63047579031263
98702.401315086332033
98702.181603235309012
98701.980144844870665
98701.80103741576022
98701.64010852733918
98701.485312877935939
98701.323885707504814
98701.150395180113264
98700.96894331931253
98700.78709781508951
98700.608123021695064
98700.429961537491181
98700.248255942336982
98700.056930815422675
98699.851299975765869
98699.633151605710736
98699.410807530599413
98699.193304751548567
98698.987533534091199
98698.797247081209207
98698.627772337029455
98698.482850713189691
98698.357998172577936
98698.239778587492765
98698.112370884875418
98697.972982669598423
98697.829347464736202
98697.689874568197411
98697.556157207582146
98697.423817887756741
98697.289626735524507
98697.156982157393941
98697.03398160119832
98696.925944191432791
98696.83142509109166
98696.741096106154146
98696.644309756360599
98696.536676138755865
98696.422642284436733
98696.311054890553351
98696.208175075531472
98696.11306306514598
98696.018422658904456
98695.915677345081349
98695.800968970637769
98695.677059106266825
98695.549828502931632
98695.424027542976546
98695.301800418004859
98695.182791776882368
98695.066007307381369
98694.952344244622509
98694.845353273311048
98694.747769684559898
98694.658015400767908
98694.570296151185175
98694.477010648290161
98694.371568893984659
98694.250488584642881
98694.113608654195559
98693.961691523640184
98693.795817591439118
98693.618891395366518
98693.435453594123828
98693.251720001804642
98693.076118609242258
98692.918075811947347
98692.784992788670934
98692.678110292428755
98692.589726819380303
98692.505540641577682
98692.411274699144997
98692.29953727494285
98692.172518915322144
98692.038128318119561
98691.902893140708329
98691.767920096506714
98691.630177075974643
98691.486979390509077
98691.339904302003561
98691.194358522887342
98691.054826104606036
98690.920372277803835
98690.785293572203955
98690.643514651907026
98690.492698509377078
98690.335898802120937
98690.180607105561648
98690.035734508943278
98689.909065389278112
98689.805302211083472
98689.72465549831395
98689.662561447461485
98689.611202240004786
98689.562607729982119
98689.511880187143106
98689.458969980216352
98689.407439053946291
98689.361343891418073
98689.322600524115842
98689.290384988009464
98689.26225813550991
98689.236843624516041
98689.215728702271008
98689.202618709139642
98689.201257049615378
98689.21332509451895
98689.237527980483719
98690.930141900011222
98690.929994827121845
98690.93744245848211
98690.955028383046738
98690.98190923348011
98691.014285381112131
98691.047192159006954
98691.076775842331699
98691.101388292154297
98691.121194200488389
98691.136724400261301
98691.147368830846972
98691.150972081974032
98691.144886369089363
98691.127767040408798
98691.100927162755397
98691.068179248541128
98691.034066319654812
98691.001782579987776
98690.971831765287789
98690.942176699827542
98690.909506914089434
98690.871079940028721
98690.826259911744273
98690.776938207403873
98690.726656892074971
98690.679107060292154
98690.636701727606123
98690.59993900966947
98690.567592326769955
98690.537404661576147
98690.50706536618236
98690.474720960482955
98690.439125317920116
98690.39966271535377
98690.356138296207064
98690.308601076656487
98690.257782793560182
98690.20569528976921
98690.155655820679385
98690.111511126888217
98690.076392353905248
98690.051611996983411
98690.036154054789222
98690.027112986921566
98690.021005774891819
98690.015267249051249
98690.009050598135218
98690.003201450104825
98689.999381372341304
98689.99907915640506
98690.002834123690263
98690.00991167522443
98690.018656690939679
98690.02734238593257
98690.035093189930194
98690.042373223564937
98690.050905073425383
98690.06294225192687
98690.080410486261826
98690.104100939322961
98690.133345373527845
98690.166163614936522
98690.199813656116021
98690.231674413895234
98690.260169523826335
98690.285235636561993
98690.308228176421835
98690.331239226114121
98690.356418794428464
98690.38547218941676
98690.419578557863133
98690.45965176417667
98690.506599144398933
98690.561245064658578
98690.624018115908257
98690.69443196899374
98690.77075397176668
98690.850444880983559
98690.931072559018503
98691.011230277232244
98691.090897340080119
98691.171058498657658
98691.252802439194056
98691.336437755453517
98691.421338218380697
98691.506431534478907
98691.591123395046452
98691.676079410244711
98691.763390047533903
98691.856034201482544
98691.956716889078962
98692.066775448722183
98692.185617699986324
98692.310918735442101
98692.43940226106497
98692.56782065751031
98692.693951907829614
98692.817226338593173
98692.938719369471073
98693.060539838043042
98693.184870646466152
98693.313047365823877
98693.445095051676617
98693.579874103292241
98693.715600501032895
98693.850521396132535
98693.983422252815217
98694.113813392294105
98694.241618884538184
98694.366702057566727
98694.488470054478967
98694.605881397510529
98694.717761200197856
98694.823215478580096
98694.922059627380804
98695.015050175803481
98695.103770864516264
98695.190263703916571
98695.276533519470831
98695.364236480119871
98695.454472341807559
98695.547787012066692
98695.644213592211599
98695.743241006115568
98695.843855831466499
98695.944647448515752
98696.043975066117127
98696.140258377548889
98696.232261862649466
98696.319417211576365
98696.401965582685079
98696.48088470294897
98696.557487035126542
98696.632955929031596
98696.708056002651574
98696.782895133306738
98696.856922377482988
98696.929199386155233
98696.998823073285166
98697.065246563943219
98697.128534959483659
98697.18930967306369
98697.248565786168911
98697.307403501923545
98697.366786943239276
98697.427359462424647
98697.489467833467643
98697.55323816438613
98697.618599274617736
98697.685220909566851
98697.75248000396823
98697.819512070404016
98697.885330070072087
98697.949090969283134
98698.01032980470336
98698.069061923408299
98698.125801443660748
98698.181505827684305
98698.237309580450528
98698.294318876476609
98698.353417547550634
98698.415057137433905
98698.479147106147138
98698.545176761384937
98698.612448016370763
98698.680225161529961
98698.747797421950963
98698.814501624685363
98698.87971362110693
98698.94278561763349
98699.003111223515589
98699.060235580313019
98699.113975959684467
98699.164554194372613
98699.212662019795971
98699.25940246169921
98699.306050983126624
98699.353784408478532
98699.403440510548535
98699.455253431107849
98699.508765632810537
98699.562917092480347
98699.6164008067135
98699.668092525927932
98699.717316625770763
98699.764075479281018
98699.809069493116112
98699.853517059134902
98699.898837314511184
98699.946232670889003
98699.996406223479426
98700.04946659077541
98700.105070033023367
98700.162672603080864
98700.221778691717191
98700.282157684865524
98700.343938544407138
98700.407522328488994
98700.473295640142169
98700.54136111693515
98700.611465990645229
98700.683087000725209
98700.755592670830083
98700.828412197559373
98700.901079508475959
98700.97334820512333
98701.045234589997563
98701.117009821668034
98701.189024057748611
98701.26161934772972
98701.335160141199594
98701.410129564203089
98701.487167616767692
98701.567059213470202
98701.650688845198601
98701.738908021099633
98701.832377966871718
98701.931429948701407
98702.036055421107449
98702.146114162576851
98702.261588946566917
98702.382629680418177
98702.509668239435996
98702.643505445099436
98702.785249314285466
98702.936136293355958
98703.097273649196723
98703.26942196879827
98703.452891744076624
98703.64750995778013
98703.852723308446002
98704.067815705842804
98704.292083779306267
98704.525000281137181
98704.766385460170568
98705.016370866302168
98705.275279268083978
98705.543575939373113
98705.821898178546689
98706.111151451346814
98706.412583956902381
98706.727869021095103
98707.059024686415796
98707.408272270986345
98707.777826774385176
98708.169645529880654
98708.585239553445717
98709.025584458693629
98709.491137077275198
98709.981941491903854
98710.497766012384091
98711.038346533299773
98711.6035694211605
98712.193536151156877
98712.808523108091322
98731.846472656077822
98732.623521955916658
98732.234977058207733
98731.964999383373652
98731.742236204896471
98731.4648759191914
98731.152369984498364
98730.910820227160002