/*--------------------------------*- C++ -*----------------------------------*\
  =========                 |
  \\      /  F ield         | OpenFOAM: The Open Source CFD Toolbox
   \\    /   O peration     | Website:  https://openfoam.org
    \\  /    A nd           | Version:  12
     \\/     M anipulation  |
\*---------------------------------------------------------------------------*/
FoamFile
{
    format      ascii;
    class       volScalarField;
    location    "0.00512";
    object      pPrime2Mean;
}
// * * * * * * * * * * * * * * * * * * * * * * * * * * * * * * * * * * * * * //

dimensions      [2 -2 -4 0 0 0 0];

internalField   nonuniform List<scalar> 
75962
(
1105509.376989364624
1085473.0990524291992
1076435.5628814697266
1070046.2131824493408
1064734.5080471038818
1059804.2697563171387
1055052.1664886474609
1050335.2206249237061
1045510.6181087493896
1040606.7832088470459
1035727.9201393127441
1030998.8398056030273
1026403.5137214660645
1021863.4756546020508
1017388.3127994537354
1013002.3996486663818
1008679.6957759857178
1004411.2411403656006
1000211.4715442657471
996078.2730541229248
991990.28229331970215
987963.39017677307129
984075.43774032592773
980370.74235153198242
976880.32500839233398
973623.47085571289062
970611.34027290344238
967882.48257446289062
965462.81496429443359
963312.21365928649902
961380.1421070098877
959635.86108779907227
958046.33685684204102
956558.76731491088867
955134.1795654296875
953751.63353729248047
952399.74730682373047
951065.66169357299805
949736.59724807739258
948392.46168899536133
947018.09123611450195
945606.13448905944824
944142.84249305725098
942602.98026657104492
940960.95954895019531
939199.04130363464355
937312.94721794128418
935299.55258560180664
933160.53101539611816
930888.03746795654297
928475.58417892456055
925922.47787857055664
923220.73617362976074
920365.34558486938477
917384.17790985107422
914316.32148933410645
911191.83668327331543
908033.90517807006836
904863.01839828491211
901706.67914581298828
898602.89446258544922
895590.2509822845459
892693.68955230712891
889915.12071990966797
887235.69592666625977
884629.22054290771484
882070.55476570129395
879545.5011100769043
877058.7956600189209
874614.76017189025879
872204.0977611541748
869803.11403656005859
867380.3328857421875
864918.14917182922363
862422.27211952209473
859903.84902000427246
857358.41433906555176
854772.19715309143066
852141.16759490966797
849470.61178207397461
846768.86701011657715
844046.64501190185547
841317.0974178314209
838586.94096374511719
835856.03824234008789
833125.37558364868164
830398.15396690368652
827687.50247001647949
825018.07256889343262
822414.45540809631348
819888.81984519958496
817437.98928070068359
815053.26017761230469
812729.24486923217773
810471.80568504333496
808294.71591758728027
806203.22480010986328
804185.45680999755859
802214.9840202331543
800261.44465827941895
798302.23848342895508
796330.7257080078125
794353.96076965332031
792382.99899482727051
790422.65788650512695
788470.23029136657715
786516.90814781188965
784546.79762077331543
782540.12972831726074
780480.51263618469238
778359.47477722167969
776179.02512359619141
773947.21807861328125
771667.83205032348633
769335.76387023925781
766945.7879695892334
764502.13616371154785
762012.84099578857422
759476.45236015319824
756878.1873664855957
754200.32686805725098
751434.82183837890625
748590.73188972473145
745689.06203079223633
742750.81880760192871
739792.19815635681152
736828.43875122070312
733872.82210731506348
730935.76481246948242
728030.50069999694824
725174.0854434967041
722381.95635795593262
719662.38015747070312
717013.6259651184082
714426.73506927490234
711893.75577735900879
709412.83480644226074
706987.49255180358887
704624.0489330291748
702327.88078308105469
700100.15460205078125
697936.7243480682373
695828.89144706726074
693762.52037620544434
691721.20107269287109
689693.56427955627441
687676.0715389251709
685667.33039283752441
683658.69133758544922
681630.91340446472168
679560.91172218322754
677432.22167587280273
675241.52083015441895
672997.13076591491699
670711.40548706054688
668394.61504364013672
666054.57604026794434
663698.2628116607666
661331.89258575439453
658955.8902759552002
656556.73253631591797
654110.40321922302246
651599.94773864746094
649029.60801315307617
646420.34232139587402
643792.03571128845215
641151.66277313232422
638495.51007843017578
635822.20594787597656
633140.93533897399902
630465.42071342468262
627802.66277694702148
625153.08550262451172
622519.54568481445312
619909.98723602294922
617332.68474006652832
614793.14630508422852
612294.23636245727539
609835.63827705383301
607415.22823143005371
605032.85086631774902
602693.16968536376953
600405.34639739990234
598178.39443969726562
596014.64956283569336
593906.53746604919434
591841.35164070129395
589810.23490905761719
517789.28405380249023
516015.64182662963867
514234.12635803222656
512443.7155647277832
510644.53372764587402
508839.06551933288574
507029.78463554382324
505215.71588897705078
503393.23427772521973
501560.4865665435791
499720.13190460205078
497876.70874214172363
496032.96036529541016
494189.01233100891113
492343.43985366821289
490493.22113418579102
488633.42712211608887
486759.43146705627441
484870.62088775634766
482971.8939037322998
481071.49429321289062
479176.28457260131836
477286.9940128326416
475396.88642120361328
473496.30324363708496
471580.4631233215332
469653.18842697143555
467722.90760803222656
465796.49881172180176
463877.44091796875
461968.34655380249023
460072.93354225158691
458196.36746215820312
456346.27665519714355
454533.33077049255371
452768.51748275756836
451057.91640281677246
449399.16261672973633
447781.32429504394531
446188.63210678100586
444606.9064769744873
443029.26540565490723
441457.6511344909668
439899.48820114135742
438362.35977554321289
436849.87665557861328
435360.57756805419922
433890.37224960327148
432436.91199684143066
431002.39706611633301
429591.9717903137207
428209.67887687683105
426856.40188026428223
425530.6604118347168
424229.82760429382324
422949.55579566955566
421682.8593807220459
420421.6633358001709
419160.34375190734863
417898.28396606445312
416638.75913047790527
415384.70510673522949
414134.7378101348877
412882.20366477966309
411618.07639503479004
410335.52846908569336
409032.76271438598633
407712.17620277404785
406376.7248477935791
405027.37495422363281
403663.6176586151123
402284.43265151977539
400887.64902496337891
399469.36351585388184
398025.76251792907715
396556.56747436523438
395066.40425682067871
393561.96128845214844
392047.42787933349609
390522.83528709411621
388986.15525054931641
387435.44965553283691
385868.2513370513916
384280.15180587768555
382665.77915382385254
381022.02372741699219
379350.28297805786133
377656.10046768188477
375947.27968597412109
374231.40637016296387
372513.56896018981934
370795.3194465637207
369075.51620101928711
367352.38440704345703
365625.28514862060547
363895.29327964782715
362164.15191650390625
360433.10172653198242
358703.45419692993164
356978.79418182373047
355265.84956550598145
353572.16118049621582
351902.9168586730957
350259.83371162414551
348641.81347846984863
347045.64416885375977
345467.01765441894531
343902.1765022277832
342348.82003402709961
340805.2094783782959
339269.00251579284668
337738.46201515197754
336215.092041015625
334704.12639617919922
333211.13411140441895
331737.86335182189941
330281.14932632446289
328835.89865493774414
327399.84737586975098
325975.98405265808105
324570.14608573913574
323185.80811309814453
321821.11211967468262
320470.45889854431152
319128.58692741394043
317793.04892158508301
316463.37081909179688
315138.7944507598877
313817.46465682983398
312497.68317413330078
311179.68024826049805
309865.46118545532227
308556.50359725952148
307251.66588973999023
305946.94536972045898
304636.95039558410645
303316.42671775817871
301980.74386978149414
300625.54740142822266
299246.98701286315918
297843.33322715759277
296416.79541778564453
294974.19522666931152
293525.10362243652344
292078.08862113952637
290636.93998718261719
289199.25763320922852
287758.45005798339844
286307.41216278076172
284841.01653671264648
283356.44555854797363
281852.21799468994141
280327.8553409576416
278784.58070755004883
277225.76701164245605
275656.04070281982422
274079.4361629486084
272498.54288864135742
270915.11105918884277
269331.3989086151123
267751.05145072937012
266178.87790679931641
264619.6294116973877
263076.41821098327637
261549.77981758117676
260038.26885032653809
258540.23748207092285
257055.45267868041992
255585.34480857849121
254131.88289451599121
252696.37034225463867
251279.37192153930664
249881.5095386505127
248503.98376083374023
247148.49076843261719
245816.80940437316895
244510.43104553222656
243230.25848770141602
241976.75716018676758
240750.86003684997559
239554.97101211547852
238392.59707832336426
237266.09124374389648
236174.1252555847168
235110.9349536895752
234068.15613746643066
233038.0800895690918
232016.3648567199707
231002.7625732421875
229999.76820945739746
229010.09031295776367
228034.58602905273438
227071.99090766906738
226120.19522476196289
225177.68325424194336
224243.87623977661133
223318.59615898132324
222401.76005744934082
221493.60485649108887
220594.80041122436523
219705.96341133117676
218826.97328758239746
217956.70093536376953
217093.04570579528809
216232.96566390991211
215372.51413917541504
214507.28994750976562
213633.40935134887695
212748.17572784423828
211849.64825820922852
210935.53337287902832
210003.0342903137207
209050.21981048583984
208077.8167896270752
207089.35106658935547
206088.99625968933105
205078.7296085357666
204057.14804458618164
203020.76322174072266
201966.62997817993164
200894.35661125183105
199806.5844669342041
198708.38496589660645
197606.40688514709473
196508.08975982666016
195420.67338943481445
194350.0432300567627
193299.60696029663086
192269.64633750915527
191257.42465209960938
190258.44014167785645
189268.70664596557617
188287.08945083618164
187316.13069534301758
186360.60290908813477
185424.93949890136719
184511.48854446411133
183620.68610954284668
182752.57737159729004
181907.97974395751953
181088.47538948059082
180295.80270385742188
179531.74430465698242
178798.68481254577637
178100.00870323181152
177439.4815673828125
176820.15169715881348
176243.75845336914062
175711.10382652282715
175222.7891960144043
174779.4004020690918
174380.89931678771973
174025.92317581176758
173711.47026634216309
1127265.6505584716797
1099999.8042030334473
1087607.6464061737061
1078379.8415470123291
1071121.3126945495605
1065094.2137641906738
1059680.0675735473633
1054466.4970722198486
1049251.4837760925293
1043967.2759284973145
1038579.9036064147949
1033162.814208984375
1027826.8013763427734
1022654.4381732940674
1017680.292064666748
1012926.7635307312012
1008373.4982891082764
1004005.0920562744141
999853.26617813110352
995896.98565864562988
992066.63601112365723
988328.94247817993164
984700.07304191589355
981187.2022819519043
977785.34416007995605
974514.29664993286133
971405.34443283081055
968514.14897155761719
965900.10720252990723
963571.45524406433105
961506.90895080566406
959676.21299743652344
958043.84444808959961
956575.59219169616699
955224.74271583557129
953948.44624710083008
952705.37723159790039
951451.7480297088623
950154.63633155822754
948793.78946304321289
947351.19312477111816
945820.52849769592285
944197.28848266601562
942478.80315780639648
940653.65610694885254
938711.42755126953125
936651.9994945526123
934480.76034545898438
932198.88515281677246
929804.2447509765625
927296.11195945739746
924671.08189392089844
921928.09724426269531
919067.9663028717041
916102.74089241027832
913053.42933464050293
909939.49297332763672
906781.27814483642578
903605.59781837463379
900449.08511161804199
897359.03156280517578
894381.94704246520996
891548.10589027404785
888857.05984306335449
886283.72893524169922
883790.03765678405762
881343.86615562438965
878929.58310890197754
876553.70523071289062
874220.58076858520508
871916.75507164001465
869611.18254852294922
867269.54335403442383
864881.54709243774414
862466.4028205871582
860043.29656219482422
857607.38039970397949
855133.68628120422363
852604.09103393554688
850016.71884346008301
847378.73829460144043
844705.80571937561035
842018.34171295166016
839328.05072212219238
836629.75830268859863
833918.08399391174316
831199.94411087036133
828497.68532562255859
825839.74445724487305
823246.01052284240723
820721.30558776855469
818259.78777694702148
815851.45131683349609
813489.18680572509766
811176.85125923156738
808928.10188293457031
806752.49332046508789
804641.65314483642578
802572.14704132080078
800515.47075462341309
798447.52304649353027
796359.3021297454834
794258.91628456115723
792160.81042098999023
790076.87428092956543
788010.35257911682129
785954.77000999450684
783893.10758018493652
781804.35788917541504
779672.6854190826416
777491.10089874267578
775260.22088432312012
772985.26696014404297
770667.14449691772461
768300.91598510742188
765887.56708145141602
763437.99946594238281
760959.7935733795166
758442.73975944519043
755863.55146789550781
753200.85074424743652
750447.29289054870605
747612.00650596618652
744716.54967498779297
741783.24559593200684
738826.54182434082031
735855.88459777832031
732880.79624938964844
729912.18880653381348
726964.62254333496094
724058.61445236206055
721216.27326774597168
718451.41184234619141
715761.84010124206543
713134.30237197875977
710559.11530113220215
708037.48934173583984
705577.33586120605469
703185.97188568115234
700867.5997428894043
698623.25415229797363
696451.20253944396973
694345.54088973999023
692289.94509887695312
690259.72178268432617
688236.44998168945312
686217.37384223937988
684207.08752059936523
682202.74507141113281
680187.96990776062012
678141.3477897644043
676048.15141487121582
673904.74478530883789
671716.18086814880371
669489.02566337585449
667227.68444061279297
664937.85643577575684
662629.9210376739502
660315.09903907775879
657995.2299633026123
655655.32111358642578
653271.55757331848145
650829.79695892333984
648335.2851390838623
645806.74836921691895
643262.26485443115234
640707.65253257751465
638136.06458854675293
635538.54634094238281
632916.16309928894043
630280.61850357055664
627644.96061325073242
625019.16758918762207
622412.85866355895996
619834.46321487426758
617286.52303314208984
614767.9443531036377
612279.85179328918457
609825.29566955566406
607406.40425491333008
605026.02976608276367
602689.3277645111084
600401.99069786071777
598168.20365524291992
595988.49375915527344
593857.60515213012695
591766.37629318237305
589708.82711601257324
587685.74421882629395
519661.24631690979004
517872.46382522583008
516077.28400802612305
514275.02566909790039
512463.77563095092773
510643.25321388244629
508816.94353485107422
506988.94367980957031
505158.39114379882812
503319.5774974822998
501468.22431755065918
499605.80465888977051
497737.83492660522461
495869.29952812194824
494002.36082077026367
492136.32784271240234
490267.65147018432617
488390.47656059265137
486499.52811050415039
484594.45348930358887
482681.34709548950195
480769.54679870605469
478865.99179458618164
476970.54784202575684
475075.28798484802246
473169.04197883605957
471245.07600975036621
469305.80086898803711
467359.76633071899414
465414.98678970336914
463476.25344848632812
461546.93877029418945
459630.58190727233887
457731.91220664978027
455859.38064956665039
454026.32709884643555
452246.42499351501465
450525.82965660095215
448858.96448516845703
447231.16670799255371
445625.24877548217773
444028.17416381835938
442435.33337020874023
440850.46450996398926
439281.62863540649414
437736.05644798278809
436216.79644012451172
434722.11044502258301
433247.59519958496094
431790.14893913269043
430350.80147743225098
428934.68111801147461
427548.84395980834961
426198.94409370422363
424886.74663925170898
423609.0037841796875
422357.9657039642334
421123.26749801635742
419894.94275093078613
418666.1351203918457
417434.16190719604492
416199.77532005310059
414964.97814178466797
413730.1466178894043
412491.76537704467773
411242.86054611206055
409976.41692161560059
408689.14569091796875
407382.5793628692627
406060.35638236999512
404724.96401214599609
403376.90826416015625
402015.81057357788086
400640.13393402099609
399245.51553916931152
397825.79390335083008
396377.66141700744629
394903.9836597442627
393411.21678161621094
391903.91400146484375
390382.49384117126465
388845.50554466247559
387291.55783843994141
385718.00577926635742
384119.53803253173828
382490.13344955444336
380827.00510787963867
379132.76688575744629
377414.42496490478516
375681.00242042541504
373940.90179634094238
372199.47598457336426
370457.3237476348877
368711.44055366516113
366959.08344078063965
365201.3022403717041
363442.7077751159668
361687.74407005310059
359937.65151405334473
358191.49685287475586
356450.20923614501953
354718.97565460205078
353005.68888282775879
351317.42086982727051
349657.98276329040527
348027.19437217712402
346421.6132984161377
344836.67087554931641
343269.35210800170898
341718.79077529907227
340183.99011039733887
338662.00568962097168
337149.34854698181152
335645.47722053527832
334154.20622444152832
332680.95806694030762
331228.47538566589355
329794.89050674438477
328375.89457130432129
326969.29948043823242
325577.62149810791016
324205.985595703125
322857.13122749328613
321528.49077796936035
320213.87705421447754
318907.34186172485352
317605.32698822021484
316305.73248100280762
315006.19693565368652
313704.35929107666016
312399.91050338745117
311095.84090614318848
309796.93158721923828
308506.54563903808594
307223.9815731048584
305944.31254768371582
304660.1911506652832
303364.07759284973145
302049.78571128845215
300712.90122604370117
299350.72892379760742
297962.66791343688965
296551.26887321472168
295122.54251480102539
293684.50600242614746
292244.010498046875
290803.84840202331543
289362.26113319396973
287915.05208969116211
286458.28600120544434
284989.42475128173828
283506.62563323974609
282007.93061828613281
280491.8431339263916
278958.74925994873047
277411.44694137573242
275853.93410301208496
274289.52914237976074
272720.22173309326172
271147.56229591369629
269573.69078254699707
268001.82041549682617
266435.9440975189209
264879.88699340820312
263336.1512451171875
261805.60567092895508
260288.23256492614746
258784.30968284606934
257294.91273498535156
255821.49995231628418
254365.13115119934082
252926.26963424682617
251505.34651184082031
250103.31265449523926
248721.53203010559082
247361.23629570007324
246023.37011528015137
244708.8254280090332
243418.54924774169922
242153.56329727172852
240915.48533821105957
239707.07027816772461
238531.78680038452148
237392.03528022766113
236286.94617462158203
235211.53057289123535
234157.94406509399414
233118.27622604370117
232087.30306053161621
231063.90949821472168
230050.48617553710938
229050.57126617431641
228066.3177604675293
227097.40230751037598
226141.94930076599121
225198.20893859863281
224265.5020694732666
223343.95891189575195
222433.74010467529297
221534.69038200378418
220646.45440101623535
219768.62139320373535
218900.68661880493164
218041.89532661437988
217190.85960388183594
216344.84198188781738
215499.21114158630371
214648.06131935119629
213786.02975082397461
212909.81217956542969
212018.07819938659668
211110.0225658416748
210184.29878425598145
209239.71709251403809
208276.88076591491699
207298.75334358215332
206308.96161842346191
205308.94238471984863
204296.60211563110352
203267.65972328186035
202218.52388191223145
201148.71775245666504
200061.23916816711426
198961.30633163452148
197855.06729125976562
196749.2794075012207
195651.53441047668457
194569.75400543212891
193510.33181190490723
192475.5129222869873
191462.12815093994141
190463.25128173828125
189472.21955299377441
188486.31853866577148
187507.90367126464844
186542.46483421325684
185595.4650764465332
184670.35335159301758
183768.64276695251465
182891.12493133544922
182038.6970272064209
181212.17221832275391
180411.75832366943359
179637.36519241333008
178889.88926315307617
178172.3281364440918
177489.61371040344238
176846.96115875244141
176248.23246765136719
175695.59210968017578
175190.29509544372559
174733.43256759643555
174325.77197074890137
173966.66147422790527
173652.94826126098633
1098722.4713306427002
1083595.6800155639648
1076547.9660301208496
1070326.8031959533691
1064783.1261119842529
1059753.828197479248
1055104.6753616333008
1050554.9184684753418
1046015.861722946167
1041447.2603931427002
1036728.6979598999023
1031799.9351425170898
1026696.4836711883545
1021538.0157012939453
1016430.3760032653809
1011487.5313606262207
1006797.4274845123291
1002378.1779708862305
998232.06955528259277
994348.2657413482666
990698.88135719299316
987230.77443885803223
983901.0905590057373
980696.98226737976074
977570.24532508850098
974514.36937141418457
971556.48432350158691
968735.89280700683594
966102.03122329711914
963696.75906181335449
961540.34232330322266
959623.89230346679688
957922.05390167236328
956399.14106178283691
955014.07100677490234
953725.88894462585449
952504.51132202148438
951307.22067260742188
950082.84630393981934
948782.64703369140625
947373.17025947570801
945839.47651481628418
944178.40309143066406
942394.40561485290527
940484.12682914733887
938435.81088066101074
936253.70732688903809
933956.96446418762207
931550.2095775604248
929027.41092491149902
926396.19512557983398
923668.67733764648438
920852.89064788818359
917955.37954902648926
914979.19970703125
911929.51645088195801
908816.71765518188477
905658.20928764343262
902482.69208145141602
899335.67189788818359
896262.07352828979492
893300.75486946105957
890478.29015731811523
887799.28937149047852
885241.95101547241211
882771.74656867980957
880359.63776779174805
877993.67398643493652
875675.89948844909668
873405.73636436462402
871165.17331695556641
868923.17423057556152
866652.29299163818359
864349.27119827270508
862039.16779899597168
859743.68454742431641
857452.52790641784668
855134.88842391967773
852756.75904846191406
850301.70845413208008
847771.83309745788574
845188.51655960083008
842579.2458324432373
839955.03768157958984
837308.0544376373291
834630.82843780517578
831932.50178146362305
829240.93233108520508
826584.79547309875488
823978.13287162780762
821423.27630233764648
818918.49914932250977
816457.92243385314941
814035.18570137023926
811651.45545768737793
809318.36198616027832
807044.56766128540039
804823.81087303161621
802637.29322052001953
800461.77130508422852
798276.75849342346191
796073.60671615600586
793859.95564842224121
791651.37420654296875
789459.6904125213623
787288.5483226776123
785130.42292404174805
782972.53348922729492
780801.72273826599121
778606.58606910705566
776377.47436332702637
774109.8664436340332
771805.28936004638672
769463.54978179931641
767082.80036544799805
764670.0693531036377
762239.87018775939941
759795.92301559448242
757319.21857261657715
754778.72720146179199
752152.16020202636719
749434.00374221801758
746632.82268524169922
743767.0328483581543
740856.93169593811035
737916.65070915222168
734952.92556953430176
731971.59745979309082
728983.33278274536133
726006.08378601074219
723064.9105167388916
720186.79244804382324
717388.17444038391113
714665.36734199523926
712002.53262710571289
709389.49869155883789
706829.75262832641602
704333.86429977416992
701911.10626029968262
699566.30249404907227
697299.95687675476074
695110.75155258178711
692993.94462203979492
690932.40021133422852
688896.42434692382812
686861.97986221313477
684825.30907249450684
682794.82879447937012
680772.67115592956543
678747.36112403869629
676701.62773513793945
674623.15586853027344
672508.52100944519043
670359.72200584411621
668178.09050369262695
665964.50361442565918
663724.49641609191895
661469.22328186035156
659209.02724838256836
656944.12956809997559
654661.67661666870117
652344.60451316833496
649985.69611358642578
647591.44844818115234
645175.66695213317871
642749.55039405822754
640314.8973560333252
637862.28415298461914
635377.92823791503906
632856.70201301574707
630308.21500587463379
627749.20277976989746
625195.0599479675293
622657.03790092468262
620139.47246170043945
617638.87914848327637
615151.2340202331543
612679.88826179504395
610233.80419540405273
607821.32721328735352
605448.44782638549805
603118.41930961608887
600829.92418479919434
598579.11682510375977
596364.37100219726562
594185.9794750213623
592043.29612350463867
589936.02556037902832
587866.6751537322998
519852.5818977355957
518040.70937156677246
516223.79434204101562
514398.73002433776855
512561.34451293945312
510711.66243934631348
508856.25511360168457
507002.36463356018066
505150.02403259277344
503291.99308586120605
501421.09644317626953
499535.97483253479004
497640.75634574890137
495741.77289199829102
493844.11985969543457
491949.13591957092285
490053.63278770446777
488151.76976585388184
486238.72747230529785
484314.3033332824707
482384.22339057922363
480457.29275703430176
478540.36324501037598
476633.94877433776855
474730.87356185913086
472819.70018196105957
470892.45772933959961
468950.11826133728027
467000.21831321716309
465050.17949676513672
463104.52126693725586
461166.65166473388672
459240.41100692749023
457330.94365882873535
455447.26675033569336
453603.28909301757812
451812.42968368530273
450078.92299461364746
448394.41801071166992
446742.89577865600586
445109.16447830200195
443484.75177001953125
441868.95624542236328
440266.64979553222656
438684.86360359191895
437129.21273803710938
435601.19102478027344
434098.31491851806641
432616.81165313720703
431154.78039360046387
429713.62349128723145
428298.0970287322998
426915.6970100402832
425574.2884693145752
424277.23382568359375
423019.99629974365234
421791.92521667480469
420581.46223449707031
419379.3691463470459
418178.51788711547852
416973.58577537536621
415762.49519157409668
414546.78641319274902
413328.79833602905273
412107.44160652160645
410876.74248123168945
409628.8785514831543
408359.00069808959961
407067.52354621887207
405758.30939102172852
404435.12054634094238
403100.2074146270752
401754.71982574462891
400397.78619384765625
399024.36159896850586
397626.30730438232422
396197.88279151916504
394740.05879592895508
393258.30645942687988
391756.8543529510498
390236.35959434509277
388696.08222961425781
387135.67401695251465
385553.55455017089844
383944.95622825622559
382304.03095626831055
380628.29715538024902
378920.90720367431641
377189.28763389587402
375442.31851196289062
373687.87402534484863
371930.61916923522949
370170.50057220458984
368404.04762268066406
366628.81521034240723
364847.42560768127441
363067.00864791870117
361294.27631759643555
359531.14022445678711
357775.32050895690918
356025.10695648193359
354283.23119163513184
352556.66864395141602
350853.43915176391602
349179.06675910949707
347534.48365783691406
345916.66319847106934
344321.65371894836426
342747.60955619812012
341194.81231117248535
339663.02630233764648
338149.5123348236084
336650.65013122558594
335165.44671058654785
333696.83167266845703
332249.48462104797363
330825.9625186920166
329424.74834632873535
328041.953857421875
326675.21454048156738
325325.85885047912598
323996.91916084289551
322689.11893081665039
321399.07751655578613
320120.96730041503906
318849.28595733642578
317579.68886375427246
316307.96976852416992
315029.81616592407227
313742.70635223388672
312448.41935157775879
311153.07918930053711
309864.18350028991699
308586.53369140625
307319.76541709899902
306058.36358261108398
304793.53335189819336
303515.93812942504883
302218.26004028320312
300896.22809600830078
299548.21333885192871
298174.68393707275391
296778.43144989013672
295364.75143432617188
293940.0425968170166
292509.09489631652832
291073.22730827331543
289630.85406494140625
288179.76912307739258
286718.90359878540039
285248.09703254699707
283766.63901138305664
282272.76117897033691
280764.90784454345703
279243.60713195800781
277711.77223205566406
276172.82573509216309
274628.69969940185547
273079.79624938964844
271526.44742584228516
269970.06145668029785
268413.16799736022949
266858.88064956665039
265310.2600269317627
263769.69851684570312
262238.71753311157227
260718.5634937286377
259210.76610946655273
257717.1310863494873
256239.18295860290527
254777.8662052154541
253333.8216667175293
251907.90379524230957
250501.32477188110352
249115.24797058105469
247750.25734901428223
246406.41359329223633
245083.75766372680664
243782.76613616943359
242504.65011596679688
241251.49711227416992
240026.2965259552002
238832.47517395019531
237672.55159759521484
236546.56358528137207
235451.17049598693848
234380.16592216491699
233326.38824462890625
232284.24558639526367
231251.58533477783203
230229.86810684204102
229222.41630363464355
228231.79279327392578
227258.2351016998291
226300.04580688476562
225355.39601135253906
224423.67092323303223
223505.17937469482422
222600.01847267150879
221707.37023735046387
220825.76278495788574
219953.85959815979004
219091.05239677429199
218237.37271499633789
217392.48196983337402
216554.22622680664062
215717.75922393798828
214876.39526748657227
214023.93143653869629
213156.77924346923828
212273.98823547363281
211375.41344833374023
210460.09367561340332
209526.70644760131836
208575.4161491394043
207608.70527648925781
206629.8664379119873
205640.17786407470703
204637.31562805175781
203616.44493675231934
202573.38789176940918
201507.46598434448242
200422.10664749145508
199323.08825492858887
198216.36975860595703
197107.60557746887207
196003.43874168395996
194912.40402603149414
193843.26488494873047
192801.09785461425781
191784.29359817504883
190785.48055267333984
189796.14020347595215
188811.66501235961914
187833.2397575378418
186865.95001983642578
185915.30838775634766
184984.9166374206543
184076.36724090576172
183190.52065849304199
182328.67329788208008
181492.41435241699219
180682.78020477294922
179900.00079727172852
179144.44551277160645
178418.05314826965332
177724.83301544189453
177069.70435905456543
176456.63788795471191
175887.72369194030762
175363.96332550048828
174886.76628684997559
174458.47037315368652
174081.07044982910156
173754.10704612731934
173473.35555458068848
1117793.8384876251221
1094242.2979316711426
1082906.2898387908936
1073759.0857963562012
1065997.7953872680664
1059310.4249496459961
1053473.3516006469727
1048181.1544971466064