/*--------------------------------*- C++ -*----------------------------------*\
  =========                 |
  \\      /  F ield         | OpenFOAM: The Open Source CFD Toolbox
   \\    /   O peration     | Website:  https://openfoam.org
    \\  /    A nd           | Version:  12
     \\/     M anipulation  |
\*---------------------------------------------------------------------------*/
FoamFile
{
    format      ascii;
    class       volScalarField;
    location    "0.00512";
    object      rho;
}
// * * * * * * * * * * * * * * * * * * * * * * * * * * * * * * * * * * * * * //

dimensions      [1 -3 0 0 0 0 0];

internalField   nonuniform List<scalar> 
75962
(
1.1362023212013780959
1.1356424344887305899
1.1373603769670763697
1.1387721506412784578
1.1383228226679193984
1.1391038276576757049
1.1406125170086718335
1.1410163186838964133
1.1397088460975126623
1.1382793038404732666
1.1380744540538105802
1.1384587148306588578
1.1388539632427086001
1.1392449222449776425
1.1393228985842733803
1.1386772068639277045
1.1376426436129662978
1.1371187990814928259
1.1377182163472641108
1.1389185433345510035
1.1398146736565144543
1.1403558313192618812
1.1408173539579280487
1.1410416955271105444
1.1405961434869038573
1.1395778296778686922
1.1388143421057743687
1.1388435570689710019
1.1392882917859632474
1.1395675668909446276
1.139582497936339367
1.1393760819090534842
1.138928456206760309
1.1385421806863704752
1.1386491470507598134
1.1393262342846444124
1.1401696291346647971
1.1408979138399002462
1.1413911130130152127
1.1414586665323955827
1.1410612982597867493
1.1404670713246338742
1.139995248787508686
1.1397788891018323376
1.1398460707331719011
1.1401478982691755082
1.1404046045364970574
1.1402343262333343166
1.1395732497008626005
1.138844374585749053
1.1384907171977356466
1.1385871085970591388
1.1389879639978204295
1.1396562020153975237
1.140438093777612405
1.140965329481982371
1.1410013634897124835
1.1407609475437008317
1.1405604780725129288
1.140454342505258456
1.1403921668068526252
1.1404240981286037915
1.140556536287898437
1.1405546742491949885
1.1401473005455899923
1.1393771199031303976
1.1386380427194418008
1.1383486941459681763
1.138578580158217779
1.1389929899324544582
1.1391552277843313146
1.1389691913150628011
1.1387058469165103336
1.1386723811114189964
1.1389054520565478068
1.1391800388898267737
1.1392367913054286532
1.1390564879246110053
1.1388078191411385998
1.138624350825806486
1.1384468855825493616
1.13812594427982261
1.1376546752691123476
1.1371882228663316994
1.1368998061602282323
1.1369075311876961631
1.1372847844425268971
1.1380228870802211461
1.138954973437000584
1.1397601125746186224
1.1401705315742070024
1.1401481068772743033
1.1398628231056096016
1.1395201904703837759
1.1392415921120166988
1.1390646362205010256
1.1390157044053370594
1.1391287119381248161
1.1393893991598011972
1.1396781002365092839
1.1398381302016182826
1.1397826364578906855
1.1395541790150480743
1.1392735825933351101
1.1390077066908013137
1.1387263219275713944
1.1384079776422291186
1.1381310374393838192
1.1380554127747950499
1.1382867607865279069
1.13879782047533884
1.1394611089585087171
1.1401600491390220249
1.1408695350457791484
1.1416364007419748106
1.14252477131805108
1.1435428976122903322
1.1446129919106129424
1.1456033300288839261
1.1464138359921636212
1.1470419762102497252
1.1475775857566896665
1.148102110629543704
1.148593918010749837
1.1489304162308724422
1.1489994786632258261
1.1488109797911989496
1.1485008840941002273
1.1482346169970578664
1.1480898159301384798
1.1480327318792600266
1.1479720434368112514
1.1478305185460984106
1.1475822074747310531
1.1472501075858261288
1.1468956436972372881
1.1465963808083221576
1.1464090355452143388
1.1463414218682386192
1.1463591406139539419
1.1464078532968828839
1.1464392159991967368
1.146439502523573184
1.1464348106749715495
1.1464548133456902157
1.1464887197515161166
1.1464746606784159688
1.1463450793764102809
1.14608799479363066
1.1457779641890137867
1.1455388981852678842
1.1454672029726082894
1.1455821953049243334
1.1458228768864247016
1.1460993510863886069
1.1463488488997684023
1.1465568312064242651
1.1467342300925202903
1.146878717283887017
1.1469608792175194356
1.1469467762296925439
1.1468412954885960353
1.1466993924873150057
1.1465983585145698154
1.1465934424431141192
1.1466879304932673378
1.1468329889758803741
1.14695800747661103
1.147003303710712796
1.1469402875386132123
1.1467749545893970442
1.1465438219626531424
1.1463075028043900883
1.1461324865633253367
1.1460669061855428552
1.1461172228228342362
1.1462440987305202444
1.1463858014226553372
1.1464956670921937487
1.146565134065927527
1.1466153868893453893
1.1466654225836738767
1.1467081487842665233
1.1467163929119279508
1.1466706877874952575
1.1465824536171298487
1.146493736174589273
1.1464523526589376345
1.147531621193216278
1.1473429693298791143
1.1471284357965367828
1.1469558907714809681
1.1468713980615665715
1.1468798254071048692
1.1469498399160271696
1.1470382770177069975
1.1471196233288234456
1.147198758204619029
1.1472985069484196163
1.1474330245025547992
1.1475897051069834376
1.147732857872784562
1.1478233118747185326
1.147839503902841507
1.1477874379067696253
1.1476950553199993799
1.1475980593162962151
1.147526304637556116
1.1474966833399762312
1.1475120099871252144
1.1475632495780749842
1.1476343480763779858
1.1477077419528483038
1.147770626896801538
1.1478200308306905075
1.1478617192071571829
1.1479075287392437321
1.1479671077018609449
1.1480425417569926072
1.148126916503518391
1.1482082327675033895
1.1482750239713148677
1.1483206203709082072
1.1483417161173672394
1.1483354777559080517
1.1482947743071685309
1.1482098867945429443
1.1480766248996512324
1.1479068338384390557
1.1477305975940697014
1.1475878388865750068
1.1475094877748699407
1.147503230218325232
1.147548792689657482
1.1476070306899304185
1.147639084210473559
1.1476247871728491035
1.1475693620249753923
1.1474975140590857325
1.1474399515135123018
1.14741916494633589
1.1474422101620214143
1.1475009210806330628
1.1475764520094475785
1.1476479001349131348
1.1476998720443747359
1.147729309056426672
1.1477477267570999064
1.1477767210743250459
1.1478386019967636855
1.1479441987794087865
1.1480846705740956892
1.1482324194874817813
1.1483522174140359251
1.1484171942680028167
1.1484209669935410147
1.1483776022610854284
1.1483113779479710015
1.1482431771941554732
1.1481803839692781288
1.1481156345447296463
1.1480358918854227657
1.1479354665436447558
1.147822493804565136
1.1477166285649091915
1.1476387006050003947
1.1475985645989925654
1.1475894068333489795
1.1475938061566481885
1.1475949817975377165
1.1475866932706819679
1.1475748347086656143
1.1475696601911637984
1.1475745309053531074
1.1475793876983313435
1.1475622602013200169
1.1474985465772558069
1.1473723320456965524
1.1471857929423787681
1.1469611619137018987
1.1467339661005622187
1.1465409882315600321
1.1464081936219014946
1.1463430673131356219
1.1463347309868616719
1.1463596732382412835
1.1463911357563185689
1.1464086012753298416
1.1464042216709378064
1.1463830951924711687
1.1463585838768950431
1.1463443404593862684
1.1463479609758322475
1.146368602737528164
1.1463992545146457491
1.1464313277805395774
1.1464588115850953276
1.1464807819945206369
1.1465002880046806233
1.1465198572437627078
1.1465375513829247911
1.1465462573380829081
1.1465363276036275586
1.1464995096369012817
1.1464319391435189299
1.1463354580534117488
1.1462170124460375753
1.1460865386327032667
1.1459548834002215578
1.1458322076496809672
1.1457267938134998442
1.145644370124259126
1.1455874540468964362
1.1455539384277964032
1.1455372022890986106
1.1455271981004209181
1.145511503601888359
1.1454780315341077657
1.1454184413396404363
1.1453302596552725756
1.1452183660126644682
1.1450952900583806215
1.1449779373880162314
1.1448832998192532973
1.1448245250699917719
1.1448073265490548156
1.1448276808448163422
1.1448733039526775013
1.1449279732573718338
1.1449755747275471851
1.1450037119970299937
1.1450058385433234953
1.1449813113359834649
1.1449339267008362686
1.1448703326490652366
1.144799593009402594
1.1447314591397912409
1.1446755956946637056
1.1446403256723975961
1.1446317659594851257
1.1446513089133911745
1.1446949329258628847
1.1447539274131679488
1.1448170362968943525
1.1448737373174604492
1.1449172501241904332
1.1449455609459859851
1.1449629656545645684
1.1449773101184275159
1.1449965843208596006
1.1450257175964320133
1.1450669446276871
1.1451199221063836919
1.1451825240152859742
1.1452538839844095264
1.145335360086829235
1.1454293530030570381
1.1455359611050945912
1.1456512151761335527
1.1457665857666794462
1.1458707794949596348
1.1459542863662595114
1.1460121983471116547
1.1460463746767568516
1.1460663451206547503
1.1460870187717935309
1.1461252646494877183
1.1461961180633923885
1.1463097535213202516
1.1464667438357385443
1.1466568968411314788
1.1468613252090438248
1.1470565857567487367
1.1472200780921026908
1.1473357418282006392
1.1473975365806419191
1.1474105466291009137
1.1473880003689020946
1.1473473722289129206
1.1473046449749133568
1.147270932889979056
1.1472506493744416556
1.1472419379166143294
1.1472405163933478978
1.1472437361953788937
1.1472535427121870466
1.1472764464101039561
1.1473202857168041113
1.1473915698214176562
1.1474922489097540979
1.1476178025946095484
1.1477561984319191168
1.1478908961213036832
1.148006900933558061
1.1480948419938001859
1.1481523995430178431
1.1481849169766147334
1.1482032456529576159
1.1482193945489318487
1.1482423721908225911
1.1482767038919881042
1.1483214062766087249
1.1483718479482953878
1.1484234448950207952
1.1484743144164981654
1.1485264103624011067
1.1485847581748749313
1.1486544368508606606
1.1487379566633935113
1.1488328540566561387
1.1489305790604813495
1.1490182907062380657
1.1490825207923616169
1.1491129440638698789
1.149105991176549324
1.1490662307321666269
1.1490053616605764297
1.1489397954290063719
1.1488859007967584525
1.1488566884529107792
1.1488598103497724701
1.1488974503773847768
1.1489657152235268622
1.1490564441456034839
1.1491590419057575723
1.1492620660102395025
1.1493540027134754311
1.1494237826772171207
1.1494613569223326444
1.149458739309386468
1.1494114981821599297
1.1493196667573772896
1.149188229994813959
1.1490264505689247176
1.1488462156481284993
1.148661268517694678
1.1484834785828679227
1.1483218773483976349
1.1481813919582213313
1.1480641044622090785
1.147969535886146808
1.1478947919653332832
1.1363772664471594176
1.1381674302593949299
1.1398899470591496996
1.1389496714180922243
1.1377924535847256937
1.1391058757026948367
1.1404191644186796317
1.1402519756841631438
1.139444873123717894
1.1387142452919214453
1.1386432505589838549
1.1390759013515272535
1.1396125254387654557
1.1397746885125414895
1.1393887764931476259
1.1386125760112761895
1.1377511398169410928
1.1373186514177722195
1.1377846316346793554
1.138786759261723347
1.1396552316084824774
1.1403891947635820259
1.1410663581277382672
1.1412636255750472358
1.1405564412754887194
1.1393336085352527842
1.1385869724580861551
1.1387780342836226755
1.1394397019017334927
1.1399299892765912823
1.1399953356304448615
1.1396573417588420352
1.139128007062900183
1.1389102078919817185
1.1392832030623547546
1.1399871795853877554
1.1405715782051679685
1.1410345432057991122
1.141378418993787669
1.1413490049042105401
1.1408262680365344188
1.1401223915885001503
1.1396352589798943722
1.139453571420387723
1.1395225253986573932
1.1398220810968673344
1.1401506457998620281
1.1401209188565204489
1.1395647291735733209
1.1388362339075659424
1.13841249279906509
1.1384427790844102724
1.1388613457434817455
1.1396017466480388158
1.1404042779247989259
1.1408762323339189937
1.1408382366048444023
1.1405389712416884596
1.1402732847681886774
1.1400932640996361833
1.1399769596848610131
1.1399739811742701789
1.1400513981663951135
1.139983031767203725
1.1395458692876361262
1.1388274394043693682
1.1382055291800374786
1.1380580131624680185
1.1384410672024853906
1.1389787912111475343
1.1391727471510475489
1.1389207480899179448
1.1385606068449913852
1.1384985326405747674
1.1388256744939004861
1.1392607406564290162
1.1394473271529503844
1.1393022148960871842
1.1389943351516766956
1.1387146329074266937
1.138469395420588004
1.1381457722404457744
1.137710494248818538
1.1372688112712476816
1.1369789701134902504
1.1369956475171394406
1.1374037764526263583
1.1381563387399391551
1.1390254329424394086
1.139712580433481115
1.1400309024938841684
1.1400076843881590261
1.1397894910354193776
1.1395417912645275926
1.1393653310625282415
1.1392789581544362498
1.1392773932288151606
1.1393709217284497814
1.139560426649047109
1.1397936304167397559
1.1399409708356917914
1.1398891597193963054
1.1396556105262773961
1.1393629574291792572
1.1391094423631622501
1.1388815806153098631
1.1386091380660594563
1.1383167429977880669
1.1381480580083600529
1.1382527089066540871
1.1386664600439013739
1.1393000254439984431
1.1400360063044436831
1.1408152232612926991
1.1416511722632995962
1.1425946739248629136
1.1436510180427184036
1.1447374078798915331
1.1457154014024273359
1.1464839248869356236
1.1470425950836289353
1.1474789350501231056
1.1478959487268871609
1.1483278455447956112
1.1487061801175326714
1.148920833100958161
1.1489242701213677744
1.148768267301596202
1.1485566184784243848
1.1483661874244897039
1.1482091021103224548
1.1480420496054444257
1.147805795313448618
1.14747169400540594
1.1470701606032900344
1.1466780962426055268
1.1463792815249356227
1.1462165152127168355
1.1461759328352283394
1.1462168434417385754
1.1462985205277524958
1.1463866295494724579
1.1464611402100886028
1.1465193347793583012
1.1465588454107049632
1.1465572740542802066
1.1464663672361106173
1.1462452951175599036
1.1459148696840126824
1.145577877752393503
1.1453708754447484708
1.1453795798166777065
1.1455863822617720071
1.1458847659146604858
1.1461515344688324447
1.1463247511904135489
1.1464266875521176292
1.146515683991881307
1.146616885078577841
1.1466984255921177649
1.1467060037988467958
1.1466268173394815744
1.1465169923676334918
1.1464638467248857712
1.1465219857331307995
1.1466787253929979773
1.1468640884095091526
1.1469933827117078096
1.1470070109276297998
1.14688722048931524
1.1466564120185886999
1.146370392603790922
1.1461049032513175305
1.1459305799787076197
1.145884943485645513
1.1459537591911488352
1.1460794172808879132
1.1461969005424084145
1.1462709292318178367
1.1463110221591350513
1.1463525738596260783
1.1464198104853167148
1.1465012029797738702
1.1465579561592671443
1.1465572499774265847
1.1464995449767843017
1.1464211016223664341
1.1463696389202813197
1.1463753604763398108
1.1477148129071388372
1.1476056457023768864
1.1474194161122217572
1.1472120811909749527
1.1470492318426366296
1.1469718707216511877
1.1469784108331244621
1.1470340147621065352
1.147099210848969264
1.1471556578388930614
1.1472137568491518334
1.1473009860746723465
1.1474354652241103292
1.1476036895393149084
1.1477630013506487927
1.147866312397556543
1.1478877540242751198
1.1478355544656086984
1.1477470571694596835
1.1476696348880921494
1.1476388125991057176
1.1476652669015554586
1.1477347868306979617
1.147818328022364831
1.1478863618932040325
1.1479207773348456545
1.1479202412687050661
1.1478975946749017112
1.1478730771342344763
1.1478642359058588429
1.147880986947507953
1.1479238249638143987
1.147985156539802043
1.1480544580149192324
1.1481227697577698343
1.1481825038388135951
1.1482259240140872958
1.1482420311527679058
1.1482157211297094879
1.1481328609585610412
1.1479904149280220071
1.1478056818192259314
1.1476148468899849409
1.1474604504520149462
1.1473735567760154908
1.1473594950500001222
1.1473958563298656266
1.1474441101727912429
1.1474690446345707784
1.1474549794899899791
1.1474100398702440362
1.1473583032700587214
1.1473276701523764665
1.1473363302983532463
1.1473851449909917566
1.1474597686922343165
1.1475377314011705465
1.1475980111685508689
1.1476287098971909018
1.1476320302944973406
1.147624692050804196
1.1476311137932189155
1.1476727763862080156
1.1477584995427865255
1.1478788928888059573
1.1480092700462107835
1.1481194029305383797
1.1481855649193446478
1.1481993937893419933
1.1481687539181384405
1.1481092261253122988
1.1480346761508983811
1.1479510321780275195
1.1478566648930728089
1.1477487766039282668
1.14763277526583507
1.147524290260946378
1.1474428256082440658
1.1474010885501895185
1.1473970570472455943
1.1474142643728502122
1.1474318039063478025
1.1474368572996005433
1.1474306985772824152
1.1474253181761466802
1.1474324170868663852
1.1474512799317009293
1.1474645757547272673
1.1474442138844720418
1.1473645743005902453
1.1472154201075341895
1.1470085761586401585
1.1467755820561342794
1.1465572026470411959
1.1463899622990765259
1.1462945172867489152
1.1462694093973753162
1.1462935783850110028
1.1463351922623905566
1.1463639595187173903
1.1463614828301966764
1.1463263640926626419
1.1462719172941331358
1.1462186448991200649
1.1461847781275613656
1.1461787739254387652
1.1461980318722737593
1.1462323364120090563
1.1462702444614096819
1.146304765793043634
1.1463354646037042794
1.1463673685912365574
1.146405617515261266
1.146449745375659468
1.146491502000930085
1.1465171766192354674
1.1465126129611025174
1.1464688444448261073
1.1463855578223489662
1.1462706691024204808
1.1461371794639856336
1.1459989799029606239
1.1458677642563062093
1.1457517165552162375
1.1456556979606160596
1.1455820844976416506
1.1455309280623366952
1.1454995226058466429
1.1454822556917885201
1.1454700068081442588
1.1454512277650332752
1.1454156017867385131
1.1453574252891951524
1.1452772542499738417
1.1451833980663608248
1.1450905506232051945
1.1450145860991669533
1.1449679193974431346
1.1449558373214743234
1.1449747409124448883
1.1450128511170816203
1.1450552084753515825
1.1450879592939777751
1.1451016081741756114
1.1450918730567556381
1.1450598187378207005
1.1450100368518960625
1.1449488075846740998
1.1448836201211063379
1.1448225668090650231
1.1447741081121001194
1.1447456115375034269
1.1447420235746357253
1.1447641205178153978
1.1448068222902376689
1.1448603511076123063
1.1449129707508476361
1.1449537439152224216
1.1449770425014844655
1.1449818379346425878
1.1449724084529104839
1.144957412644457051
1.1449466010782409775
1.144947331396457324
1.1449642715446353147
1.1449998568828938517
1.1450542865251269742
1.1451271440035750704
1.1452180049503046799
1.1453263018009918195
1.1454500664134061871
1.1455837673257731613
1.1457177778781000299
1.145840217477239964
1.1459402767477548934
1.1460122277208804054
1.1460572765510632642
1.1460836959407838531
1.1461059872466792253
1.1461411437677395675
1.1462047790379286116
1.1463073265735477246
1.1464517593051555266
1.146630346903888098
1.1468255795015929177
1.1470143532191341418
1.1471735504451314736
1.147286247743041887
1.1473468567457432155
1.1473614622431320687
1.1473450583787836443
1.1473166026045960031
1.1472931300628979034
1.1472844951684140202
1.1472927410113189506
1.1473135512992245211
1.1473399469099605508
1.147366235741407392
1.1473917423375947777
1.1474215629161228502
1.1474644408539007578
1.1475284354063441938
1.1476175552297129823
1.1477303247662369312
1.147859488685739171
1.1479932162165447096
1.1481187877692369259
1.1482266879057272391
1.1483129694951479394
1.1483787812367098891
1.1484290857095382776
1.1484698899148939599
1.1485055032965347799
1.1485376771415085617
1.1485663107744206179
1.1485909029321512698
1.1486126505952740651
1.1486350976311487937
1.1486636643669809743
1.1487041314885670928
1.1487609526318238728
1.1488346189350682192
1.1489199407718844181
1.1490064398940897927
1.1490809524748395454
1.1491316569611291776
1.1491515943923356069
1.1491406051492889517
1.1491056821224159279
1.1490584579572939994
1.1490126649728154007
1.1489818857435560862
1.1489760390106578125
1.1490001472232087565
1.1490546640004950518
1.1491360707217381787
1.1492376921732456729
1.1493514042821668664
1.1494673190296165188
1.1495747964080977876
1.1496625637329607184
1.1497200048734024236
1.1497384996365651588
1.1497120757723544582
1.1496390875008388743
1.1495228708764857473
1.1493719054313595862
1.1491985760981990872
1.1490163905481969309
1.1488385445073110436
1.1486751870560556466
1.1485326254966312653
1.1484129950078800775
1.1483150079229291762
1.1482358456519445866
1.1360477881820723045
1.1378299289711930609
1.1404975910010748397
1.1408951853985187519
1.1400522466749958284
1.1404534648363526816
1.1398543104260505654
1.1386271111305630299
1.1384998450902459322
1.1388143361164835277
1.1390390863307533476
1.1396065714178578165
1.1402376918862522359
1.1401763907586248692
1.1395881199450133003
1.1390057283215915263
1.1383964090872646935
1.1378971862299367412
1.1381138482485808616
1.138942887518332725
1.1398981583477278967
1.140721307307054122
1.1411438730849010614
1.1408773020978180135
1.1400203894150824357
1.1391431289172404551
1.1388142775069522994
1.1391719239938713493
1.1398565895513341761
1.1403755790710312645
1.1404197916082119413
1.1399629822663206458
1.1394129049550387744
1.1392366331242000932
1.1394822443413998858
1.1397965109960139785
1.1401647630532443234
1.1406534968318744472
1.1411091683852803147
1.1411026555907677338
1.1404649501408974377
1.1396107486892934624
1.1391370998955778759
1.139150173316816117
1.139435382321176915
1.1398697653121718787
1.1402748467341061733
1.1402747386787956962
1.1396735427646500494
1.1388297046900275333
1.1383337266242370411
1.1384284686611567672
1.1389863778479489831
1.1396780591690065521
1.1401965616503757506
1.1403650675058694119
1.1402033143314875829
1.139931406842668693
1.1397340121436279059
1.1396083395242160297
1.1395139757661827407
1.1394616920913600566
1.139439383835732178
1.1393115518473138081
1.1389496070517288739
1.1384386802939632233
1.1380469117717433303
1.1380392809664006126
1.1384352196938298807
1.1389172316445619337
1.1390844278721512506
1.1388399226098941952
1.1384892124774894651
1.1384532861790830349
1.1388522633989177635
1.1393853551667332269
1.1396544828935131211
1.139506735553214245
1.1390946291713197613
1.1386573702262703378
1.1382826291869843072
1.1379424175950698661
1.1376050951430944913
1.1373174751715711128
1.1371825814765799123
1.1373181041497288923
1.1377633085322413908
1.1384370632338109974
1.1391358417829779981
1.1396434557597661108
1.1398803276222426728
1.1398847945710475216
1.139726188864310652
1.1395146947304977125
1.139368156054458403
1.1393404357709018271
1.1394075051294125789
1.1395290160525686218
1.1396981569263469058
1.1399072579530113991
1.1400523778283786491
1.1400256518786937576
1.1398209160078851543
1.139550412839414939
1.1393245213744502831
1.139142257145677295
1.1389085634597950758
1.1386324535927574431
1.1384361023569997684
1.1384797689051160408
1.1388279836916694876
1.1394163399001642212
1.1401245923291067896
1.1408891225144772719
1.1417232826958407799
1.1426806759885288489
1.1437721541211971488
1.144908314102099034
1.1459386608781156891
1.1467336594647714598
1.1472649786913273751
1.1476109158026603918
1.1478885432403087563
1.1481788885485342266
1.1484778559823003441
1.1487172092254263056
1.1488330956839745145
1.1488116781030595082
1.1486818696300977738
1.1484912552357156024
1.1482700565588257469
1.1480101991519013893
1.147683666103011868
1.1472871391532339924
1.1468708630238306778
1.1465153754289640897
1.1462831801524482334
1.1461852963613785583
1.1461873096099468583
1.1462427940885628885
1.146325800854377519
1.1464260024646821812
1.1465225539489516393
1.1465854014396903438
1.1465860344621130462
1.1464960000424562203
1.1462927957369430931
1.1459823518303633438
1.1456283583692301598
1.1453466497799189572
1.1452535592927961527
1.1453938776430401258
1.1457006600874477531
1.1460294711677592172
1.1462478350372538038
1.1463162419572474615
1.1462970115488213541
1.1462848675919201646
1.1463270629406698831
1.1463921572657820303
1.1464148596378898048
1.1463718408196950094
1.1463151025399311855
1.1463283713417868892
1.1464551103043809643
1.1466605928269197889
1.1468592073296410838
1.1469650449786374935
1.146931253551640717
1.1467577188383495379
1.1464819411991804543
1.1461680504545967985
1.1458929763577812011
1.1457250837736780991
1.1456947123917673448
1.1457777791473551243
1.1459101813551288984
1.1460238843805143905
1.1460855008840598046
1.1461103359790778544
1.1461413994830864649
1.1462112805728563725
1.146316349791112188
1.1464167301223631146
1.1464671817104796769
1.1464504691155157357
1.1463860596255870394
1.1463144823869513278
1.1462750311285481164
1.1477375348019245305
1.1476357913689763102
1.147467848703452642
1.1472833851164900842
1.1471396851624162672
1.1470730436820772979
1.1470826902424287042
1.147137040048703982
1.1471973604020542226
1.147244225035157994
1.1472875966625704081
1.1473549299269449886
1.1474677074046997216
1.1476204393759597
1.1477763709646049417
1.1478873116272609867
1.1479213644509811409
1.1478819888880020805
1.1478076652778086419
1.1477514736047600419
1.1477538351499134706
1.1478232906290981585
1.1479337995040539422
1.148039644853404484
1.148099000749105203
1.1480922354496798654
1.1480271966007287165
1.1479311152510727201
1.1478364878872082677
1.1477675933392139651
1.1477350528821621545
1.1477376221214312668
1.1477687766024096128
1.1478220584490756995
1.1478933250404919075
1.147977512324225513
1.1480611743991511187
1.1481202097050966504
1.1481269024492690711
1.1480620819657616494
1.1479260050948045802
1.1477426044423202356
1.1475535954359836754
1.1474013939484268843
1.1473120016384239506
1.1472847434676183287
1.1472958037612686066
1.1473124177752791475
1.1473095148596688109
1.1472807952189401082
1.1472402608700844606
1.1472121913026260831
1.1472178724495081248
1.1472657239317678446
1.1473469919915193493
1.1474395642847861065
1.1475174334002440357
1.1475603087705954497
1.1475619854990009028
1.1475329894441390621
1.1474964717446984874
1.1474791394033274639
1.1475006148336373002
1.147566899860245293
1.1476680675361210504
1.1477819986511230699
1.1478825123902274274
1.1479483891975661436
1.1479691331619250594
1.1479466445227521909
1.1478894941615838121
1.147805901848388821
1.1477004664532628464
1.1475771177070506202
1.1474437330842317539
1.147315911277435152
1.1472150366483415684
1.1471589237911299364
1.1471518235043363099
1.1471805748404697578
1.147220756002948594
1.1472492586832869765
1.1472570071181853457
1.1472513732988092183
1.1472486698499617663
1.1472605569924505531
1.1472833141945724122
1.147295946186778659
1.1472695269811303831
1.1471810277056617711
1.147026002585040505
1.1468226644192498487
1.1466064244404656769
1.1464175439741950413
1.1462879974781825521
1.1462313027547057498
1.1462387464023269246
1.1462826737602951344
1.146327859347936684
1.1463448798183339949
1.1463208584382102995
1.1462620495424900025
1.1461885250111893964
1.1461239925709434395
1.1460861563642501526
1.1460800352387998657
1.1460985293446492861
1.1461282622063206915
1.1461578638334541935
1.1461838772759518346
1.1462108367887531291
1.1462472848088505195
1.14629997786232396
1.1463681571637944767
1.1464412020018817095
1.1465010554703516377
1.1465286831507537357
1.1465108033697313239
1.1464449922780060032
1.1463394884853086442
1.1462089568896098868
1.1460691789460155654
1.1459329914904499148
1.1458093588381865757
1.1457039512296587347
1.1456201152752301109
1.1455600500896079286
1.1455233119471417425
1.1455052286544467055
1.1454975714074029369
1.1454887207294688345
1.1454671222312404755
1.1454260719473154939
1.1453653066456690457
1.1452919280990312423
1.1452193065551179441
1.1451622484241481548
1.1451306895964459276
1.1451270956919306077
1.1451463124931020587
1.1451763748329173431
1.1452038311283592176
1.1452180721298288457
1.145214230050045412
1.145191928997255415
1.1451545927694826155
1.1451076589777156034
1.1450563683434411555
1.1450055347439025422
1.1449595805486973976
1.1449237457140564178
1.1449029032798427874
1.1449004950834602568
1.144917057871917887
1.1449487118673784547
1.1449866331432385635
1.1450205619156772485
1.1450408451360973849
1.1450419783669145701
1.1450237770554754224
1.1449898359225216815
1.1449477084397645665
1.1449083270015885105
1.1448829082262383938
1.1448789132373038413
1.1449009784484815988
1.1449508435788893213
1.1450273784183664372
1.1451270526832972863
1.1452454868218506778
1.1453782236602558786
1.1455196206974604944
1.1456620370193908443
1.1457961690923217368
1.1459126652882494213
1.1460047507390769272
1.1460708011962550401
1.1461153550923126598
1.1461485365462746877
1.1461848548589366192
1.1462393349897084249
1.146323808705398184
1.1464439910075916451
1.146596916095172114
1.1467698984137804086
1.1469435393777356325
1.1470961102370056395
1.1472106679827431819
1.1472802165163644705
1.1473097952929698362
1.1473134536568734276
1.1473087978867999581
1.1473111763828374166
1.1473295121775279881
1.1473648396433051566
1.1474112294923715094
1.1474597421393870622
1.1475032458344376352
1.1475397196676506706
1.1475728939935747608
1.1476110206208980369
1.1476630626019330705
1.1477354229934468854
1.147829922432423988
1.1479437444398765678
1.1480700294722301358
1.1482000660791604751
1.1483258320793969798
1.1484414456667229043
1.1485436940648161563
1.1486308691715199082
1.1487022486771620855
1.1487572624024422474
1.1487955612537059658
1.1488180303898571921
1.1488276402820984945
1.14883000251909273
1.1488323969964229221
1.1488423673533405545
1.1488655788677610836
1.1489039773113145504
1.1489556037132340194
1.1490145265995828083
1.149071805991219497
1.149117648577680173
1.149144749925214759
1.1491506694697750657
1.1491385729996048681
1.1491163987187711371
1.149094338692949524
1.1490817894923992526
1.1490859614448680759
1.1491109854735639395
1.1491579022919291564
1.1492247103394135355
1.1493079565385337926
1.1494034498858420879
1.1495065922713931794
1.149612215329571363
1.1497136785571115958
1.1498025431793170714
1.1498691947401080693
1.1499040940410698575
1.1499000743316907247
1.1498533456278747789
1.1497650805873953495
1.1496414704355979453
1.1494927553398917031
1.1493310186488763236
1.1491682397225755352
1.1490155684699541183
1.1488799644448635107
1.1487637340619767379
1.1486654421181592411
1.1485817518243068847
1.1485103462950521092
1.1388729356273723514
1.1394175322297706021
1.1401454816883405119
1.140973032649059915
1.1416888016150144036
1.1415463982145519495
1.1399383228710200378
1.1382703881622771025