/*--------------------------------*- C++ -*----------------------------------*\
  =========                 |
  \\      /  F ield         | OpenFOAM: The Open Source CFD Toolbox
   \\    /   O peration     | Website:  https://openfoam.org
    \\  /    A nd           | Version:  12
     \\/     M anipulation  |
\*---------------------------------------------------------------------------*/
FoamFile
{
    format      ascii;
    class       volScalarField;
    location    "0.00517";
    object      k;
}
// * * * * * * * * * * * * * * * * * * * * * * * * * * * * * * * * * * * * * //

dimensions      [0 2 -2 0 0 0 0];

internalField   nonuniform List<scalar> 
75962
(
3.6107036441634654262e-05
5.5915470546168289246e-05
8.5588524581248226226e-05
0.00010860636851459543615
0.0001169975130840358071
0.0001232525970828326036
0.00013848082997157195413
0.00018073132526715311123
0.00022251065795860007447
0.00024731088811144141901
0.00026906112099107590014
0.00030747593346020049999
0.00035959385480191079784
0.00041045483887206034128
0.0004537105057044716434
0.00049260404684051530087
0.00053862044204222461839
0.00060229401821089391042
0.00067442981104391132828
0.00072977840020423546518
0.00075811253515764922845
0.00078177291794195239837
0.00082807508923142937683
0.00089766892509057999786
0.00097280017136426480233
0.0010328398203285269179
0.0010700346828124466473
0.001099249549600443774
0.0011508184463343599461
0.0012506966557001425455
0.0013911816008185780638
0.0015357168351568814893
0.0016493249552886370124
0.0017286211275886174694
0.0017926573792992530482
0.0018529690953358365479
0.001902851387187733806
0.0019329498692911438375
0.0019496670914396269005
0.0019728839132666137375
0.0020263582514608163843
0.0021695958190465370469
0.0023425837756924005814
0.0024620198649231220256
0.0025207814397746825322
0.0025687706443069638525
0.0026773415624621035511
0.0030211450613504128512
0.0035115818829130293101
0.0038125987686160921555
0.0039224370192509879288
0.0039341791645066065755
0.0039213234515509736919
0.0038929571696344100924
0.0038845181014385897315
0.0038862232111616249255
0.0039034098109406046434
0.003982833648035471498
0.0042142299561105994385
0.0044097446543886727535
0.0044896137571558344947
0.0044969786601556415231
0.0044906487795845833819
0.0045029775333739882268
0.0045978534294626328266
0.0048611208789925228896
0.0051059570184957044775
0.0053065030603151519192
0.0054751979171188992768
0.005601386609606479744
0.0056724532828916129565
0.00570368118701673147
0.0057425351753225733001
0.0058470780485543232333
0.006219072601419346584
0.0069817945780754741419
0.0075057619222311990764
0.0077278087615653108869
0.0077629299510355385255
0.0077432436991230271794
0.0077227406785090654123
0.007746728775285099608
0.0079282556036080146372
0.0084853733910842613769
0.0089634363335003141432
0.0091922063570486160083
0.009242850503359224465
0.009233391444422547889
0.0092216986387308810813
0.0092497636693893280774
0.0093876618857510873289
0.0094729947858901916713
0.0094692059282705503404
0.0093807158838878652168
0.0092307672019453952672
0.0091962858198334981874
0.0092228115199965553933
0.0093919448029847040632
0.0096816623975109726563
0.0098429250100487489239
0.0099066681900115121512
0.0099233918090638455894
0.0099237206469051202073
0.0099216584059575400195
0.0099147935313676043012
0.0098908367349909067506
0.009853090405258857834
0.0098277756829335677358
0.0098170259507040884273
0.0098158983209585635304
0.0098214390625623454456
0.0098507657841157940382
0.0099597518084925586862
0.010110984272967181788
0.01021799984324391411
0.010303320731226001117
0.010398008980092047701
0.010519242092161684363
0.010660757581482022127
0.010800228697875174574
0.010912015922092802023
0.010983594562659324684
0.011019845558295680854
0.011041279193068695777
0.011074418821682151942
0.011150408369473717787
0.011330095766873318416
0.011549755877709061772
0.011756903830370158889
0.011926538462625833892
0.012054563435891814741
0.012155698976073171444
0.012253341104660144326
0.012366009737908516264
0.012498322231151184208
0.012642801521512897489
0.012781936848409817045
0.012899652543287950385
0.012988601813083160488
0.013052199203246994327
0.013104911706140330574
0.013168280149439045429
0.013261837536232971499
0.01339744650030379701
0.013574070559861253424
0.013778523331849434203
0.013989690258702596609
0.01418515650305334809
0.014348766714382002116
0.01447274873566196246
0.014560574556198383964
0.014622286505422859779
0.014673312060824717645
0.014729781502767548898
0.014805576318158849072
0.014907631254351466285
0.015036177123065366454
0.015185796839124772808
0.015344937455001459586
0.015502572448810760311
0.015648243028009545252
0.015774476723027289898
0.015879890798976899202
0.015965614946191114543
0.016038169803883239178
0.01610639462796316021
0.016178806424469855535
0.016263380767580357805
0.016366352646772438367
0.016490095246078462915
0.016632909977763007253
0.016789979516896702538
0.016956377623661349902
0.017126454824717717018
0.017292495001056857468
0.01744865436640337733
0.017589904807593714081
0.017711188957818500833
0.017810810279366016268
0.017888578114270317632
0.017945772129201727901
0.017984768502314434774
0.018009094987372846475
0.018023036682968309602
0.018029887251927993741
0.018032761408973137923
0.018033543510867656307
0.018032760896735292033
0.017236803173183129489
0.017219337554386347083
0.017201734945270753807
0.017183954652142553049
0.017165931669141543114
0.017147865545197416709
0.017129895863599746419
0.017111947920899171771
0.017093837605684260306
0.017075752443108955375
0.01705806398372025634
0.017040891474600930455
0.017023824532546985577
0.017006559191601690328
0.016989179733295670799
0.016972044829280837075
0.016955042221620527515
0.016937751720325154581
0.0169196699672388845
0.016900772873310328237
0.016881167369592005312
0.016861432213234203714
0.016842067724054061995
0.016823797481272540627
0.016806506963314815639
0.016789991451995854577
0.016773442793820921709
0.01675690947291396532
0.016740168604627733012
0.016723719254424344177
0.01670711094841891356
0.016690665254257164296
0.016673802824962578872
0.016657031375760217307
0.016639691839520399236
0.01662222007680625932
0.016603957040759814712
0.016585667651444733345
0.016566954541508100568
0.016548658772116815741
0.016530114176444558882
0.016511951331767093371
0.016493234935121083712
0.016474627181049004282
0.01645512713708337238
0.016435826423178472033
0.016416009477223894586
0.016397059386792960795
0.016378093447924485515
0.016360389880230436638
0.016342861396020695597
0.016326430108626548143
0.016309523151136456898
0.016293043202753317716
0.016275812885815487546
0.016259265091486698601
0.016242182374827395658
0.01622570229016854354
0.016208368236181418948
0.016191272505298497097
0.016172881585788334569
0.016154370304844022782
0.016134613823904717794
0.016115543346701378946
0.016096139358217343568
0.01607799037898600264
0.016059266041333272734
0.016041236587756888682
0.016022194304081936733
0.016003826710230997787
0.015984590325357539431
0.015966171035994691091
0.015946816036951659556
0.015928428886618040822
0.015909353773908722907
0.015891580567564476956
0.015873090371962071676
0.015855547798020962896
0.015836876288590429063
0.015818984437575778906
0.0158001065046305747
0.015782345936309401246
0.015763919069205323265
0.015746928967713045427
0.01572951415458798477
0.01571351562593583176
0.015696691619978830889
0.015680393192155445137
0.015662519906449103024
0.015644922372989304715
0.015626365719925310038
0.015608793686062225406
0.015590725105472526268
0.015573364941138178805
0.015554964164230513854
0.015536796695750565087
0.015517437565138687827
0.015498599944477367898
0.015479146514314218869
0.01546103195518414887
0.015442963168713873257
0.015426429773002707166
0.015409312468533449547
0.015392760932291684947
0.015374649958086938559
0.015356981956604488782
0.015338251679909761099
0.015320929857269295973
0.015303220789585906397
0.015286970716781310073
0.015269667255669673589
0.015252807611432465593
0.015234176198142174857
0.015215796096148622232
0.015196035633063901746
0.015177073874888192401
0.015157387481145654165
0.015139064693905001854
0.015120544746829892718
0.015103524275804849561
0.015086126408952519468
0.015069738278630010614
0.015052530735282376381
0.015035881861817578312
0.015018312513473280195
0.015001308201620010274
0.014983855815903170464
0.014967368995223122655
0.014950544762225119466
0.014934282645454653379
0.014917312018044449895
0.014900642007122053348
0.014883681121539043754
0.014867325493898329164
0.014851150286517384932
0.014835701707332874313
0.014820338206066501277
0.014805265712622481603
0.014789388937691971479
0.014773265109641216947
0.014756039938020517471
0.014739157283396149556
0.014721831258442579296
0.014705633928610423872
0.014689311032637659971
0.014674210313878111034
0.014658703903734287416
0.014643998080426190098
0.014628423209769977203
0.014613339504998460947
0.0145973539337309801
0.01458167565341380624
0.014565393580552957534
0.014549227248911250632
0.014532925395677505007
0.014516641250172383076
0.014500297448004739742
0.01448400486080846962
0.014467480715629700908
0.014451657464377163156
0.014435416498415544473
0.014420304298116675551
0.014404337198559834937
0.014389116890677722954
0.01437304584462430028
0.014357210538381310477
0.014341213364354673393
0.014325384581775051779
0.014309860389114024623
0.014294592913299276546
0.014279096638702798786
0.014263639660934688755
0.014247552009613024052
0.014231234446513224556
0.014214752237796331874
0.014197828359134223239
0.014181422007713925804
0.014164676201985646267
0.01414883046789221395
0.014133042914251024019
0.014118201739866886868
0.014103107356516299264
0.014089193578174690272
0.01407395688496085491
0.014059679152258515097
0.014043945356440486888
0.014028928044971675226
0.014013235338663141555
0.013998760534046169116
0.013983670234614215336
0.013970286703345517407
0.013955467600358918007
0.01394257905695727752
0.013927845552066654006
0.013915201871824017799
0.013900501674235303876
0.013888049514788324348
0.013873120654542712635
0.013860289086773253109
0.013844755567087535172
0.013831418995024540031
0.013815571385770412591
0.013802464519768981727
0.01378751378596014196
0.013775430641816426361
0.013761293550290399149
0.013749832873409776821
0.013735725485719964961
0.013724233765135580507
0.01371043784581268965
0.013699272843110463574
0.013685567768982208683
0.013674550225227066758
0.013660293622038114161
0.013649054598859636234
0.013634499665474647187
0.013623268092490108463
0.013608570534042588318
0.01359749764378094701
0.013582549746911578778
0.013571530227736192803
0.013556518119556396074
0.01354526606248794042
0.01353016975485932076
0.013518725863561528375
0.013503979656108243412
0.013493043554981345306
0.013478868961476889177
0.013468595293771097599
0.013454726213417457503
0.013444836732051882594
0.013431378262764966797
0.013421872247180714754
0.01340870419554808339
0.01339924774852521358
0.013385789690933666551
0.013376517202946351659
0.013363003831187865098
0.013353871297281806607
0.013340378185684766132
0.013331091882562160281
0.01331702490292496939
0.013307604189941753953
0.013293556505818600322
0.013284162121885448316
0.013270396183226541853
0.013261396000026013861
0.013248004807491725252
0.01323944443783755566
0.013226685417281594873
0.013218719930310464383
0.013206110286640853485
0.013197867844551909589
0.013185034306445790608
3.1739116077681906098e-05
4.7320623873701730619e-05
7.5963327834974164873e-05
0.00010596978446997089036
0.00012737450189423556689
0.00014709771710810963324
0.00016998423599461908741
0.00019147539440792372533
0.00021444440756482910327
0.00024948262802695897727
0.00029727454579927880618
0.00034601357781625957004
0.00038666885827961903913
0.00042688133834682922673
0.00047770997519889460848
0.00053715706318014451361
0.00059604971396382954319
0.00065572950268309704823
0.00071446457426587817261
0.00075722742114109136639
0.00078089511514277344575
0.00080762621696736527997
0.00086228124438518809116
0.00094570897716494918203
0.0010344571112111866553
0.0011029528124118588486
0.0011420842977003884539
0.0011635606437916162694
0.0011918460245329662479
0.0012553760592083479646
0.0013950753058577182366
0.0015572243186763338671
0.0017004761605368152056
0.0018068265786499680941
0.0018787507362504256379
0.0019266893287121862523
0.0019580412314146029666
0.0019780108606622897986
0.001999084503715578727
0.0020405245516912948016
0.0021433106309511674482
0.0023208716635912882142
0.0024962894849636144655
0.0026225459808108930043
0.0026847580578611414219
0.0027245329678265211779
0.0028061442034081852601
0.0030635560257307524294
0.0035435509430782048505
0.0038776437886752878996
0.0040227326942675924182
0.0040506091292094393089
0.0040463504959499692337
0.0040319620490433015839
0.0040283756350956850811
0.0040314543712796626837
0.0040510178026380919136
0.0041314212869409099732
0.0043482276642774720862
0.0045355242444647565769
0.0046268752251003991693
0.0046467765598116059569
0.0046456975548876781879
0.004652584490842570121
0.0047119999468548598442
0.0049363726101085579276
0.0052513379953925175617
0.0055281690964790837148
0.0057642665665465254998
0.0059383961184885621434
0.0060356732318930664608
0.0060764939128437975985
0.0061151467006100952359
0.0062096988121100836489
0.0065284155075443746699
0.0071637698859337607671
0.0076130608709915710205
0.0078118656641270722146
0.0078481307165459059799
0.007840069743080583034
0.0078400190659347907679
0.0079083923800488328815
0.0082726562221279980464
0.0090304387341916744769
0.0095380250951236922319
0.0097604858546488700716
0.0097988714365836414311
0.0097834255956932032056
0.0097740188385693239914
0.0098214366881588261587
0.010020669050634964381
0.010135614135394823213
0.010135082146154130583
0.010040070444138862737
0.009861489327032910493
0.0098169232812424442325
0.0098449530142239727315
0.010033100189017504431
0.010360584059825567183
0.010533906217169430874
0.010594790168047159284
0.010604549043514982856
0.010602504707220598498
0.0105953848616477872
0.010568469368843482273
0.010495343638953279902
0.010435685372487749079
0.010407924101360280233
0.010402802736981244316
0.01041146141810093094
0.010465759221943591803
0.010557687053102532415
0.010611789575251402012
0.01064948175361777466
0.01070831670044158565
0.01081104963571505144
0.010957908282983224238
0.011125110719361404332
0.011279651487758935585
0.011394861765262822781
0.011462858758295054601
0.011496078354009366812
0.011523466464625015115
0.011576289915146255674
0.011684317138272969083
0.011840291028999652689
0.012024336918336209212
0.012209384161791462381
0.012374153296949167227
0.012511107872019620185
0.012627835764666507645
0.01274165874937932888
0.012869360688409220081
0.013017656166528683917
0.01318266059645585922
0.013350254291148029931
0.01350112320809669815
0.013620376265872582641
0.013702801232417112162
0.013754402662959476153
0.013793271953712648095
0.01384231693988557943
0.013923853866936324736
0.014052940037249895752
0.014232386343533569295
0.014452774414071891187
0.014692627753118841366
0.014925597808798771529
0.01512754219965394345
0.015280331721967924108
0.015379638048019637908
0.015432860418049738557
0.015458146520719685119
0.015479210010526994398
0.015520959527286699517
0.015614091393316258116
0.015750304118290151673
0.015912507441315136558
0.01608596612794468278
0.016258115926682865926
0.016417593820278658656
0.016556572752586675573
0.016673279936832006987
0.016768888842805935308
0.01685066568258350439
0.016927621355129172931
0.01700918107659012829
0.017104456660800616136
0.017220418229207522243
0.017359065032450465837
0.017517168254323908783
0.017689370313262481327
0.01787000220821695004
0.0180528884707823363
0.018229730895043236988
0.01839512278259138045
0.018544350686339011042
0.018672036724791719192
0.018776909046019259197
0.018858609721073175264
0.018918647168509862555
0.018959815709001435341
0.018985682955224736368
0.019001098621318757848
0.019008886116009867523
0.019012462861207227866
0.019013499487462202225
0.019012302032271347074
0.01900762219924647875
0.01815981475485424837
0.018142335143335387715
0.018124498943828282194
0.018106169399848163343
0.018087583264558445423
0.018068986378721060143
0.01805034227658386739
0.018031550156442661265
0.018012628873646036737
0.017993693884379036857
0.017974838474895400708
0.017956081385588386345
0.017937340029615653214
0.017918484099091976092
0.017899511337579096515
0.017880614570864022256
0.017862034795441919521
0.017843688707167411345
0.017825323783187272536
0.017806483006606203118
0.017787013597713209612
0.017766762014348878168
0.017746348110814512411
0.017726367030363895244
0.01770764626704288483
0.01768980934945990971
0.017672425856989439769
0.017654596053298433206
0.017636545664456829835
0.017618275722381539217
0.017600395397641365597
0.017582702759773159717
0.01756550935241847633
0.017548348979194605679
0.017531326592065070435
0.017513689933118574416
0.017495570539112000052
0.01747648714560219585
0.017457076603666788622
0.017437217024518458092
0.017417679616156277189
0.017398251731050320967
0.017379367238569910087
0.017360314468490924827
0.017341165692111196878
0.017321229477576013944
0.017301219065844950645
0.01728098230034110297
0.017261495443748071238
0.017242248703466356297
0.017223838561647903528
0.017205507398703759336
0.017187770027345675855
0.017169832505060145939
0.017152304340264504234
0.017134486321293416339
0.017117073018820101737
0.017099255662123571953
0.017081678922516316255
0.017063563488519121331
0.017045329361793714468
0.017025970361231108907
0.017006003411155764388
0.016985159669496083246
0.016964734171134424751
0.016944425477958068027
0.016924835827521193116
0.016905040811612884188
0.016885524838175198364
0.016865704035550918571
0.016846126682887239273
0.016826168280514103986
0.016806312478183083742
0.016786174393547799444
0.016766505384347187013
0.016747023901026392156
0.016728204333938165305
0.016709377912957505685
0.016690711622559983168
0.016671569877168994356
0.016652295161883188396
0.016632696469581667587
0.016613351575639510177
0.016594288181224013667
0.016575971853302531173
0.016558173671709051911
0.01654105105190920369
0.016523886404851539228
0.016506454305399490684
0.016488066711193228447
0.016469097103402746685
0.016449712535406196823
0.016430547002225365932
0.016411439922618308029
0.016392278998764473613
0.016372702959070450923
0.016352843841937504676
0.016332799177947138203
0.016312900638317598401
0.016293159019942170945
0.016273927912824618508
0.016255224806345766608
0.016237182415478695896
0.016219239963346430283
0.016200990980621460952
0.016182008681197804223
0.016162666223487030109
0.016143318041045316702
0.016124723549693579377
0.016106705863871657175
0.016089308591079917732
0.016071591409480334711
0.016053264963195958137
0.0160338839842891559
0.016013828681272442023
0.015993382790613467487
0.01597302953530910577
0.015952927203433067693
0.015933296975458120098
0.015914312573704642723
0.015895944720183314419
0.015878112668385499506
0.015860470744742956317
0.015842811106820703371
0.015824880289577347714
0.015806754612701881535
0.015788441964269865625
0.015770401268512940912
0.015752575265969962631
0.015735054917749562164
0.015717276036230434094
0.015699306246169976442
0.015680855808080311486
0.015662770997423618863
0.015644856284022838622
0.01562803419401564628
0.015611663355739643921
0.015596107245785802847
0.015580295204594826405
0.01556425467687583622
0.015547241922402947265
0.015529706367115633792
0.015511692656064708304
0.015493753358442633947
0.01547618893526948175
0.01545926161980882424
0.015442986738994539733
0.01542722346704196619
0.015411436517187781028
0.01539540291932754365
0.015378714374114895239
0.015361826877946625422
0.015344338384578484411
0.01532713872116846579
0.015309325798265631044
0.015292129888647431474
0.015274452495558315732
0.015257556722328792509
0.015240346817260703657
0.015223702589395135543
0.015207155443344737636
0.015190936811575975196
0.01517508539168899856
0.015159147051845570792
0.015143079935392924837
0.015126837752500458395
0.015109959404070215719
0.015093510049769066558
0.015076274961132099875
0.015059959282926339841
0.015043042885819793777
0.015026844649333889747
0.015010099752251033003
0.014993751340617306536
0.014976540219001249418
0.014959896042859358728
0.014942091682378632125
0.014925467152206696453
0.014907663952452734554
0.014891578993349752214
0.014874676463376770852
0.014859705551040941138
0.014843700849316507351
0.014829589112330664527
0.014813395323406718107
0.014798652236097163334
0.014781660483726460215
0.014765980090433842437
0.014748862405813637638
0.01473353718371820352
0.014716755142925742189
0.01470246397814474644
0.014686087204239360246
0.014672494645201514946
0.014656582840103193205
0.014643507223037619674
0.014627782647017155762
0.014615055755971996868
0.014599178414016283911
0.014586177056434865978
0.014569665027056737799
0.014555944338543699498
0.014538932004075704255
0.014525158784630402137
0.014508754730818515521
0.01449598995875069074
0.014480562098442830918
0.014468535850862496162
0.014453411557644445587
0.01444155664965559617
0.014426873906193930439
0.01441539502848294789
0.014400810009423937325
0.014389447393348835796
0.014374138626510673047
0.014362407612678563043
0.014346585816274386865
0.014334668163372261962
0.014318630845801575205
0.01430663757928206381
0.014290268603510783083
0.014278444331126452158
0.014262118262415812014
0.014250299297368223053
0.014234139019817406216
0.014222442476764751013
0.014206598532120095352
0.014195233111269496898
0.014179866416577620661
0.014168824517678851177
0.014153584210959939058
0.014142926122429233526
0.014128166237464155272
0.014118069181103374068
0.014103737592736658238
0.014093960984530204752
0.014079652993856038926
0.014070210779211717381
0.014056086080035772035
0.014046887469123631523
0.014032464781576308582
0.014022862328399277043
0.014007651237680197875
0.013997572853297212195
0.013982194875583536103
0.01397201748553242133
0.013956899931132964177
0.013946918442616793032
0.01393202795727267046
0.013922535361127159198
0.013908236343979255706
0.013899234134040859903
0.01388516134731887855
0.013875963658043498003
0.013861561675478525218
4.8912021728218659335e-05
5.8547213339672859414e-05
8.4612868110052981744e-05
0.00010758567642171987266
0.00012306073105944947206
0.00014563529692513565343
0.00017380396668966778344
0.00019691040105761095994
0.00022179258692536275594
0.00026155383933203386893
0.00031536782991620736227
0.00036769511353949391012
0.00040557209497357700262
0.00044029009530788352101
0.00049025857234348199643
0.00055465404031059797798
0.00062101262891293507271
0.00068670973891382192187
0.00074861353210723909947
0.00079217182001403750949
0.00081598296914559475743
0.00084282944019193250986
0.0008989031772160518876
0.00098310725797689808153
0.0010674379762848965319
0.0011280779799759709306
0.0011626172545720037891
0.0011915543894460904444
0.001245468264381674765
0.0013682924292423427441
0.0015580324550937326572
0.0017575369397579046048
0.0019116696753201625932
0.0019904789694404280594
0.0020124734272822797365
0.0020160687016886761139
0.0020218514566232525208
0.0020367698695333011707
0.0020767239070794466481
0.0021805480882530112706
0.0023246410164314001978
0.0024713683073943233659
0.0025965615431936621936
0.0026782813135707837261
0.0027195520327141439743
0.0027595608299536117901
0.0028506594931074803745
0.0031386476432071382103
0.0035853043031801824433
0.0038836755500578669376
0.0040135987228168334626
0.004043660959886814267
0.0040486583207219621269
0.0040592002882088142404
0.0040944925829619095714
0.0041888369153314335136
0.0043186148792101804877
0.0044633748097714226466
0.0046013568483194242781
0.0046994525423129209288
0.0047415314342364881309
0.0047473958031257670193
0.0047488780176827942447
0.0047717523555777605765
0.0048980513756040249332
0.0052772774797836801558
0.0056660511623715338267
0.0059594920912872315077
0.0061673141667445826805
0.0062925811031296734199
0.006350519243217196165
0.0063790795980462966855
0.0064299490263289276609
0.0065854277453102714329
0.0071365476301206128354
0.0078286672582533519543
0.0081878424061162663472
0.0082822274281929304102
0.0082714821526685793074
0.0082063996983139670532
0.008190492356308174543
0.008253585865674262223
0.0086241955985049689737
0.0094598241297009933587
0.010025259889259527032
0.010270138586856141644
0.010311744064727422499
0.010296762633557891148
0.010293534021469354089
0.010376886496298563106
0.010679170720720868384
0.010843992288487440748
0.010848874571414377291
0.010742892683912036791
0.010492635660946542445
0.010401687175608336638
0.010407335813636692939
0.010494831351302162312
0.010735329359010897451
0.01092225684012174472
0.01105080830126809778
0.011152739644951543616
0.011230160048676628148
0.011275554309434391437
0.01128829223740565775
0.011284285665821493228
0.011244622774695772066
0.01113719707010037141
0.011067333093398570507
0.011043609648573001966
0.0110429558114222056
0.011060860228236346972
0.011145612886459108429
0.011289489303517965743
0.011380829190809592377
0.011425748763274241881
0.011453891619397412599
0.011500898135678071926
0.011615166890273819628
0.011806924057702020137
0.011996637639784233503
0.012157875220538712571
0.012287956090830222736
0.012402550301125848248
0.012518333142814086489
0.012645842480433646879
0.012782339630059610588
0.01291813490846928196
0.013044477348498815378
0.013160092919731613756
0.013269284165851264259
0.013382198895549908199
0.013510309943000019944
0.013659563560496870704
0.01382808420009236372
0.014005557712848401911
0.014180197375257280398
0.014340701847862733984
0.014480471039039171169
0.014600723833792281225
0.014710007282546981242
0.014819950860485908359
0.014943495981928697422
0.015082805864480465854
0.015237636876052519305
0.015400060949130430638
0.015559716615100372891
0.015706606131082354733
0.015833329588933811594
0.015938092018348167661
0.016024702415001347566
0.016105344473195920552
0.016194713490490869612
0.016307021058281228471
0.016449576247920708744
0.016618932560556746308
0.01680546912955045713
0.016995956273367304051
0.017177123630317359809
0.017338396622847446205
0.017475676792586072178
0.017587662097531809452
0.017676281389556080387
0.017748284088001938658
0.017811251038697722276
0.017874832149954500427
0.017948589983078494514
0.018040167754872740019
0.018153612366020265706
0.018290877338128050389
0.018448243163634713004
0.01861928437760071442
0.018796479874986286168
0.018974488310229235821
0.019148095690028430621
0.01931187386458260366
0.019460860577593587506
0.019593460113764043368
0.019708017921481860851
0.019803064231799841904
0.019880940701168199614
0.019942571592188290674
0.019989559385378760648
0.020022666009048822183
0.020045006823961229736
0.020058665457520580278
0.020064289406708065572
0.020065501251997665266
0.020063703492856313493
0.019119441705068174892
0.01910124607703371849
0.019082792142624004084
0.019063806586139660226
0.019044557582777277976
0.019025269470584988546
0.019005715261255794191
0.018985801520366465261
0.018965808470279212072
0.018946112217821338419
0.018926575193859263013
0.018906855484301376968
0.018886639543379157846
0.018866147979902280624
0.018845592172816210547
0.018825466439855692569
0.018805672945700731974
0.018786332977276939266
0.018766903111227452305
0.01874743820126216487
0.018727196701036275678
0.018706447450815486683
0.018685085138708139307
0.018664488593831747576
0.018644704850375483363
0.018626041007017236917
0.018607078864504144472
0.018587898156190749838
0.018567944103569117981
0.018548195750257595593
0.018528274525230505748
0.018509211247104626064
0.018490532595768612023
0.018472987476875060014
0.01845513496957184793
0.018437104369097359613
0.018417513509764248114
0.018397449885059206226
0.018376359350934748371
0.018355731437552199464
0.018334925008707668448
0.018315178587181325798
0.018295336372201247838
0.018276161264809343693
0.018256092764835044062
0.018236207165568656813
0.018215449985214592077
0.01819555696883729673
0.018175341957794362291
0.018156222692015219072
0.018136410409256429471
0.018117304587868608701
0.018097297311788988761
0.018078289525107087143
0.018058752306423512396
0.018040421802355495473
0.018021262464986118751
0.018002894394697571689
0.017983456068195687039
0.01796485959689245529
0.017944914753222407366
0.017925113671730767695
0.017903389075025259031
0.017882218972453622907
0.017860238216995880101
0.017839688986132185705
0.017818193943180311162
0.017797658324389419027
0.017776039199166950716
0.017755685769836399707
0.017734284587739568284
0.017713862708176403293
0.01769206200188992717
0.017671601234766139144
0.017650274907234822508
0.017630729003145263062
0.017610260735611803218
0.017591272457346669028
0.01757099490887436416
0.017551798651881191787
0.017530851964298675705
0.017511001932798902353
0.017489777330508358283
0.01747041607681929995
0.01745022210242670041
0.017432034725898052502
0.017412821296785459257
0.017395254782545541139
0.017375959569428077456
0.017357587947833635206
0.017336978136258996558
0.017317422262024869534
0.017296180534406360718
0.017276322346932177637
0.017254667463669097482
0.017234219591116158032
0.01721208812028153165
0.017191863717362036029
0.017170354189928248995
0.017150882380588140103
0.017129865111032895747
0.017110933228856952532
0.017090533129562698877
0.017072122117164283822
0.017051470372612460846
0.017032205616633322443
0.017010658857723015558
0.016991314025927024833
0.016970724044950692005
0.016952879768206755712
0.01693341995859471219
0.016915780621975847614
0.016895290176477902044
0.01687589908322110685
0.016853719446928903253
0.016833454651510974809
0.016811263950319836613
0.016791545830550012181
0.016770160621649522759
0.016751316328858494725
0.016730986903904357388
0.016713131027689100139
0.016693466963298823208
0.016675781868436805738
0.016655964058396664773
0.016637830248035608699
0.016617822533419500386
0.016599728878460253551
0.016580019290449322239
0.01656210186959416325
0.016542048433442396727
0.016523321204041083177
0.016502457025508534411
0.016483614107129059695
0.016463600906153039866
0.016446517930850699379
0.016428555714240049984