/*--------------------------------*- C++ -*----------------------------------*\
  =========                 |
  \\      /  F ield         | OpenFOAM: The Open Source CFD Toolbox
   \\    /   O peration     | Website:  https://openfoam.org
    \\  /    A nd           | Version:  12
     \\/     M anipulation  |
\*---------------------------------------------------------------------------*/
FoamFile
{
    format      ascii;
    class       volScalarField;
    location    "0.00517";
    object      k_0;
}
// * * * * * * * * * * * * * * * * * * * * * * * * * * * * * * * * * * * * * //

dimensions      [0 2 -2 0 0 0 0];

internalField   nonuniform List<scalar> 
75962
(
3.6105906702375602506e-05
5.5937378705868134345e-05
8.5611210156301626242e-05
0.00010858412320700658424
0.00011693747854371628616
0.00012319898649994890402
0.00013847814416027834426
0.00018079922941110780133
0.00022252527358769812497
0.00024729143348787408331
0.00026905518809554194093
0.00030750535896513909832
0.00035963497960068237019
0.00041047563428934374799
0.00045370185361306991645
0.00049257773734873503118
0.00053861604002455475051
0.0006023397863239702589
0.0006744693332706369138
0.00072973068640232879607
0.00075799876590599809048
0.00078168974301382550436
0.00082807390179806680212
0.00089771837640966530448
0.00097283408909335108115
0.0010328089778073889539
0.001069947564471820543
0.0010991790808266680996
0.0011508567578124534285
0.0012508701478629146841
0.0013914143037280473757
0.0015358873542730471992
0.0016493792724852542747
0.0017286019273460642709
0.0017926158954209160234
0.0018529030800359612939
0.0019027266604528709788
0.0019327566982409983241
0.0019494554705096300666
0.0019727201329283535099
0.0020263554516646424021
0.0021699062176809783692
0.0023427943943316346595
0.0024620093886270942932
0.0025206136872048647349
0.002568671433390791372
0.0026776088820638943057
0.0030224599101849945575
0.0035125557285412855636
0.0038128699247846412068
0.0039221953361274373637
0.0039337771185588895489
0.0039208527480490539679
0.0038925310726788116093
0.0038841567011881753847
0.003885891532536565017
0.0039031703512857280139
0.0039829609798633308984
0.0042147134459194638204
0.0044098171286229923688
0.004489337994690817922
0.0044965732084081165218
0.0044902605100544303734
0.0045027390128445157758
0.0045981240440731586255
0.0048617565817505922071
0.0051063349158233101166
0.0053067314894387970781
0.005475268132484282374
0.0056012294977759368927
0.0056720734042664724267
0.0057032485738829465441
0.0057422469482821441103
0.0058472405462588828221
0.0062208884436694006359
0.0069835745665519964945
0.0075065046564540037835
0.007727679625982399915
0.007762434675228730048
0.0077426173533852891626
0.0077222458384813147392
0.0077465113357540610339
0.0079290932526618774362
0.0084871239126785361084
0.0089641424824027978596
0.0091920401181975266991
0.009242254572621210959
0.0092327232585662465103
0.0092211632832189076303
0.0092494952718433168931
0.0093876899174299612699
0.0094725488150164231793
0.0094685626676541869567
0.0093796073505236082779
0.0092300102896602145147
0.0091958533562166190622
0.009222618248094295243
0.0093925515498329142927
0.0096820061771040275694
0.0098428360605447556136
0.0099063019764028762554
0.009922906990847760178
0.0099232194245456317727
0.0099211649293612317463
0.0099142889761946167287
0.0098902481833963180186
0.0098525205256269621223
0.0098272688454299969574
0.0098165858492687274595
0.009815495751661844348
0.0098210899891906615344
0.0098505781765425327878
0.0099599511867483701139
0.010111092515811324552
0.010217974855578432214
0.010303239562831727899
0.010397951657619386792
0.010519245350012697629
0.010660798775017426079
0.01080023692048847142
0.010911914969167353998
0.01098335420069557547
0.011019506168363000717
0.011040936555412411701
0.011074176516435685694
0.011150448319218672633
0.011330504321783330807
0.011550160084648196726
0.0117571933482390166
0.011926655059014006771
0.012054539975080698008
0.0121556237616798294
0.012253299178997726845
0.01236603616088306247
0.012498396984268300702
0.012642872481896020795
0.012781955475492880539
0.012899599252673267166
0.012988479189522929291
0.013052025365223499098
0.013104728030202354022
0.013168147210510664294
0.013261818437273560981
0.013397578322302141837
0.013574340687673309633
0.013778870764815707647
0.013990030413740320303
0.014185413396527424626
0.014348890418737190317
0.014472725583546125136
0.01456042539080563275
0.014622056207289506335
0.014673060909383041014
0.014729573758855018031
0.014805463269774365651
0.014907634605848185325
0.015036286093639139247
0.015185971538940377934
0.015345126826392154959
0.015502736335940851126
0.015648355287838290606
0.015774526158882442445
0.015879875041389584361
0.015965540944301977178
0.016038056977325097774
0.016106271466921211893
0.016178705782044434242
0.016263335782396883683
0.016366387698546817214
0.016490216514443743062
0.016633104389164991149
0.016790228210757086186
0.01695666328788645455
0.017126758072400292965
0.017292793734307941589
0.017448922289470460145
0.017590108609110467058
0.017711298332809231881
0.017810808238295863098
0.017888462661528738845
0.017945557916313487762
0.017984482637536630678
0.018008768982157391525
0.018022695219703670222
0.018029542609193680708
0.01803241134982964608
0.018033175059060154583
0.018032353816764445237
0.017236372068188000189
0.017218902780477735731
0.017201296530652256112
0.017183515477577022967
0.017165492402029601526
0.017147423354293738623
0.017129446265060639665
0.017111489112928878614
0.017093373247404917981
0.017075288904289165348
0.017057605122178264023
0.017040436873918117511
0.017023372999886748208
0.017006113323438269008
0.016988744643751094165
0.016971620689604755006
0.016954618271507633509
0.016937308434023374409
0.016919188805364766132
0.016900248271431373565
0.016880614111282679635
0.016860880150944411449
0.016841545879620660464
0.016823318350171270752
0.01680606251599201309
0.016789561277352548635
0.016773007877397508314
0.016756462524553872306
0.016739716144476491505
0.0167232740954699928
0.01670668247548326435
0.016690252986181524503
0.016673397311471424564
0.016656619517917997664
0.016639263200627085748
0.016621771323195574932
0.016603492726727061418
0.016585196180456323461
0.016566482984071966705
0.016548189671829416358
0.016529646157017924973
0.016511480795003950078
0.016492759417129507216
0.01647414632347894009
0.016454643902280696038
0.016435346789018857178
0.016415540618764101755
0.01639660677388562679
0.016377661107266947016
0.016359980393438160184
0.016342475363030871394
0.01632606535944083892
0.016309175737900909187
0.01629270856738374712
0.016275486297581031464
0.016258940148404430609
0.016241849804307473965
0.01622535089906466596
0.016207987448268575126
0.016190855874037606704
0.016172429648258580814
0.016153893471851813596
0.016134128303000906668
0.01611506396668208746
0.016095673968488839051
0.016077538323320223618
0.016058821325123449897
0.016040792381613960815
0.016021747130638384904
0.016003377601240167949
0.015984143320821764256
0.015965730451212495344
0.015946385100931867451
0.015928007789202051903
0.015908939389298434181
0.01589116667500286087
0.015872670143259458297
0.015855116894989432219
0.015836435649535005044
0.015818540841498914679
0.015799670502423097951
0.015781927310303686673
0.015763523651005941634
0.015746554804041669462
0.015729153049556503924
0.015713155831880966373
0.015696321217360049288
0.015680004685709753726
0.015662112536562973475
0.015644502002089021031
0.015625938991905268666
0.015608363978415393941
0.015590290537955270311
0.015572920943031155414
0.015554508352239419799
0.015536331656319827058
0.015516971395046973495
0.01549814240874143427
0.015478704561496345327
0.01546060653262931045
0.01544254933281378854
0.015426019143939427233
0.015408898094098672296
0.015392340501752753076
0.015374227391164910217
0.015356563957591409103
0.015337843148201159987
0.015320530547773030666
0.015302823635426050439
0.015286563712292313214
0.015269237721425589147
0.015252347248352700684
0.015233684171843500307
0.015215279767658710861
0.015195507167593630404
0.015176546442988238933
0.015156870989241566505
0.015138564150680022466
0.015120059790254748722
0.015103051231161030571
0.0150856601706972418
0.015069274677224497525
0.015052067044168155815
0.015035417419818716822
0.015017847768502699812
0.015000845230870108252
0.014983396522181767832
0.014966914644251462507
0.014950095667036243999
0.014933839435266658621
0.014916875283186758344
0.014900213158537518876
0.014883259880115587426
0.014866910810533791668
0.014850739082745213412
0.014835289765151318808
0.01481992032369797152
0.014804835847076421723
0.014788942913966679482
0.014772801061598856559
0.014755560385696989134
0.014738667228155555647
0.014721337961014234474
0.014705144250966752442
0.014688830557578858027
0.014673742116913439035
0.014658248350580754121
0.014643552683314907045
0.014627983587558554546
0.014612900941552169412
0.014596911411404145734
0.014581226256196655119
0.014564934725898721207
0.01454876001295254441
0.014532451142495735746
0.014516163504299203421
0.014499820904991064796
0.014483533726096351271
0.014467020337099517277
0.014451209095540712077
0.014434981234727306543
0.014419879617694046983
0.014403919839111111595
0.014388704373765517225
0.014372634235641813805
0.014356799314631574216
0.014340800394633613016
0.014324969406287987525
0.01430944156644147966
0.014294167550302609021
0.014278663517795758126
0.014263198389540472297
0.014247104628122963382
0.014230786756642898119
0.014214308754061500892
0.014197394942349063698
0.014181000858516895624
0.014164267849858675971
0.014148433247800101809
0.014132652777268488176
0.014117813726681098865
0.01410271965053317908
0.014088803651931949834
0.014073567194052170534
0.014059293659462490308
0.014043566980982915074
0.014028560654699031782
0.014012880043449787298
0.013998415769435747918
0.01398333501285795033
0.013969957158973436706
0.013955143800290451678
0.013942260016159949837
0.013927531531067568332
0.013914891000240951768
0.01390019146654162055
0.013887734965184087704
0.01387279674092070994
0.013859950731950990491
0.013844400117298254205
0.013831047251380410371
0.013815188849679050156
0.013802080837184507039
0.013787138903665218173
0.013775073203572777217
0.013760959467860482686
0.013749522657680819659
0.013735436215565657511
0.013723959813838901636
0.013710170400570749136
0.013699002391749745544
0.013685286846395900914
0.013674251762336643579
0.013659976556269224149
0.013648720083560546973
0.013634152160144338839
0.013622911519044567444
0.013608209040964715578
0.013597132122671315435
0.013582182110242169495
0.01357116113431746339
0.013556148485001607087
0.013544898971141090815
0.013529808693419192664
0.013518376819282206663
0.013503646266827399811
0.01349272742364925233
0.013478569587219267276
0.013468308930342899957
0.013454448375236729638
0.013444562497167364748
0.013431103226880469065
0.013421593457389351112
0.013408419885035948588
0.013398957558077406738
0.013385496269295535723
0.013376221210138487111
0.013362706321667203527
0.01335357173817532106
0.013340074718346849394
0.013330781947335407916
0.013316708987494124683
0.013307282982841017044
0.013293231298563339821
0.013283836437380847073
0.013270073622414129202
0.013261079260227541174
0.013247694404470145707
0.013239139311107900321
0.013226382139427636173
0.013218413014015887447
0.013205793954506880178
0.01319753862635850844
0.013184688894121453923
3.1744419939121392641e-05
4.7330675801377643339e-05
7.5983874466549526736e-05
0.00010595764027352868317
0.00012734337215056335348
0.00014707044879111965036
0.00016996248911928609924
0.00019144732897354192823
0.00021443758522073246334
0.00024951284771217337177
0.0002973219628854463655
0.00034603892409990392141
0.00038666674307977184173
0.00042689091182022823653
0.00047774192696389871163
0.00053716827958061894119
0.00059602707256585756978
0.00065573234357631736934
0.00071445899969573240049
0.00075714725603878349752
0.00078077377012923925709
0.00080754926878852026622
0.00086230330211842839278
0.00094578844504671294793
0.0010345132457599706764
0.0011029251298696066477
0.0011419753271421852377
0.0011634299947589459012
0.0011917687774080228894
0.0012554760576238505141
0.0013953567856063834891
0.001557480886925988791
0.0017006330154256321316
0.0018068561638210996114
0.0018786748428563468816
0.0019265482325631522621
0.0019578558756965010884
0.0019777989812970976288
0.0019988972446630150215
0.0020404350429816804462
0.0021435190861392107615
0.0023211750862006589984
0.0024965022376928491799
0.0026225315541302520947
0.0026845594585510586597
0.002724367544854860556
0.0028062317203139826825
0.0030646484438229932255
0.0035445711189606753447
0.0038780277127160017042
0.0040225638045647731447
0.0040502294145932961345
0.0040459390946243596957
0.0040315491060052173478
0.004027989467313575038
0.0040310882927322320632
0.0040507548865756238393
0.0041315245372815535829
0.0043486297854216735687
0.0045355894129172954349
0.0046266201025074683503
0.0046463599904966014845
0.0046452771925390278634
0.0046522589064867548442
0.004712028600236193264
0.0049371041741484980245
0.0052519448126547626371
0.0055286072568990337825
0.0057644812950604614257
0.0059383237894729407058
0.0060353548004223730658
0.00607611089422224835
0.006114881349902431644
0.0062097833279938455947
0.006529842897766662338
0.0071651427399799117596
0.007613600829535134909
0.0078116549295971088318
0.0078475943642043344967
0.0078394961627579837909
0.0078395336484448248371
0.0079084455993955558167
0.0082745858514930471783
0.00903223144174703646
0.009538691963071298241
0.0097602218155322956888
0.0097982089931271821454
0.0097827102563358414589
0.0097734640664019194894
0.0098212806662189740259
0.010020869145410261913
0.010135186890140673865
0.010134415398329656502
0.010038822283325461379
0.009860619043567431935
0.009816448230973825323
0.0098447583695597667974
0.010033818592691383723
0.010360977281606145034
0.010533774957167299502
0.010594343019729142788
0.010603999935073389616
0.010601954047324569849
0.010594841650169136218
0.010567826304372003945
0.01049459872448685327
0.010435050722392267067
0.010407389946303934047
0.010402336305330182886
0.010411090091032656688
0.010465678716958949634
0.010557552642153284969
0.010611568178627793155
0.010649275771871849136
0.010708221132495768235
0.010811085405691856637
0.010958020408286063552
0.011125208439751503586
0.011279656157511938272
0.011394728517681040197
0.011462591660479746689
0.011495740225918841745
0.011523162646377788088
0.011576134559245096489
0.011684374261606038023
0.011840499046218505574
0.012024605782660425027
0.012209606948797366646
0.012374260554869849493
0.012511097844890651035
0.012627772084448693479
0.012741628372230020746
0.012869418460299878598
0.013017799539006218168
0.013182836763140016317
0.013350388273131383321
0.013501155204802859494
0.013620283552356015483
0.013702592500169724632
0.01375411598203941585
0.013792973384075790308
0.013842089913726407166
0.013923779385976145853
0.014053064239274265859
0.014232701509331849646
0.014453219220284066818
0.014693104519501079541
0.014926002594383796368
0.015127786094223842975
0.015280363197207269543
0.015379459035115781648
0.015432524652718203687
0.015457745210764903959
0.015478847406927316935
0.015520730129623006716
0.015614097263451210892
0.015750437316136907395
0.015912721090678448588
0.016086205013983233963
0.016258335992685172405
0.01641776036402022021
0.016556664365184547982
0.01667328430047130064
0.016768805733384413437
0.016850514592826586896
0.016927440223973889977
0.017009025834324176252
0.017104386302946337356
0.01722046970572724961
0.017359237603487977925
0.017517430812737988521
0.017689683947944075115
0.017870337102921480393
0.018053221180212276897
0.018230042059716500963
0.018395390045138411417
0.018544538623208883105
0.018672114417434982486
0.018776863937295839441
0.018858450934984866132
0.018918402905670705927
0.018959519004454750135
0.018985362287191543534
0.019000769525554205008
0.019008550775134240574
0.019012112937684913505
0.01901311924414550783
0.019011869258697296908
0.019007124740217724163
0.018159373863430208762
0.018141898306735491225
0.01812405464292552934
0.018105715648533863421
0.018087124192088924191
0.018068524278492315016
0.018049875514918028302
0.018031076840231665542
0.01801215008974407436
0.01799321368709047228
0.017974360763232798133
0.017955606720543401678
0.017936866324136130357
0.017918010659059912387
0.017899042058899135993
0.01788015545399133932
0.017861586606821026196
0.017843241964211109529
0.017824860456182006763
0.017805985792070291168
0.017786477401199669163
0.017766201158455986742
0.017745791389532934029
0.017725841272611973787
0.017707160264058621757
0.017689351467988466415
0.017671974240308866572
0.017654133098850652295
0.017636067366775826787
0.017617792466626362724
0.017599924196828892892
0.01758225553726339499
0.017565085891364989878
0.01754793675842528447
0.017530906630646804489
0.017513245860773615781
0.017495095639857596165
0.017475986940181334472
0.017456565353852850075
0.017436710075310293822
0.01741718710633151021
0.017397775785105495244
0.01737890286171308446
0.01735985243848270701
0.017340698315294684334
0.017320754448495258998
0.017300739340615312739
0.017280504736731268356
0.017261027274307685908
0.017241795922162558852
0.017223405667604999719
0.017205097308743762252
0.017187383540680434973
0.017169467912002977367
0.017151956934831923129
0.01713414871255058633
0.017116735246864533265
0.017098906077101915651
0.017081305661151426761
0.017063156738504624971
0.017044883731878224947
0.017025488635144952337
0.017005497355761123313
0.016984645787523320465
0.016964226610690254227
0.016943930595285254526
0.016924351943662884618
0.016904562039827045888
0.016885046052891268531
0.016865223116118564783
0.016845645237762895546
0.016825690471384501662
0.016805843404857436635
0.01678571791467322466
0.016766062127269786702
0.016746590182502851807
0.01672777317599631261
0.0167089415157681484
0.016690264659008777898
0.01667111191137178941
0.016651832017729035346
0.016632238185350527171
0.016612908571210852071
0.016593866638453545759
0.016575569765924180049
0.016557783405099561064
0.016540660510811270451
0.016523483839910490384
0.016506032787256558897
0.016487625953285095504
0.016468642223149709131
0.016449249141424291537
0.016430077326974285717
0.01641096130681698323
0.016391788114239736612
0.016372200257862058043
0.016352336008307225002
0.016332296843014456472
0.016312413322912753394
0.016292690864479070223
0.016273475942020783347
0.016254780762171211483
0.016236736629630283552
0.016218785942524113763
0.016200528971519679439
0.016181545798667457126
0.016162211980339739187
0.016142878248451970197
0.016124295612128941579
0.016106279321560848516
0.01608886846536677212
0.016071123615361723042
0.016052762414664533547
0.016033349126383267258
0.016013273152507660757
0.015992822315721067633
0.015972478593113639822
0.015952394706653435369
0.015932785684757179434
0.01591381953129165569
0.015895463708867393904
0.015877636542523689694
0.015859993962049588612
0.015842330794377652153
0.015824396346505457261
0.015806268560144286911
0.015787956659257845055
0.015769919067763742832
0.01575209704397563179
0.015734580002227126216
0.015716803690286624412
0.015698836667732234823
0.015680391538350286346
0.015662314417109676756
0.015644409344406789292
0.01562759611833928336
0.015611230355413407284
0.015595673031986587859
0.015579852340337457806
0.015563796828570813924
0.015546765934817147886
0.015529213898802424892
0.015511188661854392878
0.01549324535814902877
0.015475684484334010366
0.015458765993063453698
0.015442501785386700958
0.015426747132061014237
0.015410964558635827787
0.015394930286964347496
0.015378237782097525094
0.015361344007116400218
0.015343849368502110453
0.015326643938969765693
0.015308828061134314644
0.015291632307559444373
0.015273958701243461542
0.015257070401570618084
0.015239870149274303834
0.015223238052179417085
0.01520670224201540674
0.015190493811816354816
0.015174649014432948016
0.015158713270865934591
0.015142646659590161193
0.015126402050500290311
0.015109521646578258705
0.015093068574092078846
0.015075829849934200069
0.015059509709057932597
0.015042587280656749202
0.015026382995209211502
0.015009632593305616624
0.014993281080126041882
0.014976072532286908989
0.014959435763796562549
0.014941644583853322045
0.014925034269566837819
0.014907244813375995079
0.014891170370966709188
0.014874273936483819666
0.014859303975951908619
0.014843297417592209164
0.014829180968365876167
0.014812984126565521478
0.014798241894747593897
0.014781254531323981954
0.014765582654176658342
0.014748474704372415561
0.014733157777512951789
0.014716384174376510516
0.014702098767224494255
0.014685729020773242298
0.014672144090593789226
0.014656240992121890784
0.014643172749553836839
0.014627453573084396241
0.014614726497613127545
0.014598843754124894712
0.014585831252679317196
0.014569304343048830597
0.01455556845794563417
0.014538544884667404036
0.01452476876950695682
0.014508371819017521279
0.014495622894448370946
0.014480216678311751133
0.014468213347450169931
0.014453109559715945909
0.014441269824419176657
0.014426593342780763551
0.014415110756857795263
0.014400514255795056687
0.014389132543960500565
0.014373803830835075318
0.014362053830339711544
0.014346217830967011864
0.014334290870649298716
0.014318249091482613058
0.014306253669175345022
0.014289885636804560906
0.014278063253634513258
0.014261740230501935428
0.014249926648751931949
0.014233774189150966843
0.014222089178997289471
0.014206259418499175146
0.014194909431144117282
0.014179556372483770668
0.014168524698444413465
0.014153291656077917823
0.01414263747868003962
0.01412787906191262724
0.014117782030627520212
0.014103450265781105472
0.014093673179311592622
0.014079365939376555644
0.014069923402386271677
0.01405579674744838331
0.014046592099373450546
0.014032160653297051991
0.014022546544739427493
0.014007324556913421446
0.013997238027296550825
0.013981855107521437565
0.013971677672900643247
0.013956563083639380099
0.01394658648981316959
0.013931701604131284389
0.013922212797028651193
0.013907913357951847896
0.013898905551592869931
0.013884822163940380157
0.01387561086787411635
0.013861193625945898364
4.8890867755112402745e-05
5.8534230333456422062e-05
8.4627600251740823806e-05
0.0001075375708400203782
0.00012301586248685605083
0.00014563274756514436783
0.00017379897661912204463
0.00019688424540226844646
0.00022178485512094672501
0.00026159180700305198573
0.00031542163452268995273
0.00036771415363907010432
0.00040555361304428852193
0.00044028931547422807923
0.00049029349337296470549
0.0005546842930552582868
0.00062102367479404329501
0.0006867323728369112033
0.00074860714305458671454
0.00079209020893777968945
0.00081586158592222520793
0.00084274939160547846385
0.0008989178084142883645
0.00098316093274066862322
0.0010674549300346519547
0.0011280147274854057833
0.0011625006627534063136
0.0011914673523734176444
0.0012455100139835341855
0.0013686046469834672792
0.0015584318971667355299
0.0017578562738216469124
0.0019117589793845367416
0.0019903236044257377642
0.0020121974867416264621
0.002015793433296997339
0.0020216015665717955961
0.0020365643531548992436
0.0020766438732978697614
0.0021806968379158614586
0.0023248219831747455287
0.0024715230943067596596
0.002596597171652093982
0.0026781455289499067098
0.0027193212964214952265
0.0027593996776728796708
0.0028507994354165450482
0.0031397303427075232488
0.0035861779411244733458
0.0038839596040466301853
0.0040134226625317603529
0.0040433141511083715847
0.0040483019164742999052
0.0040588626074739096034
0.004094286296492787719
0.0041888456281286992958
0.0043186738536601853786
0.0044634536589559176481
0.0046013571907151931337
0.0046992721206946010126
0.0047411705697303681978
0.0047469570225181761253
0.0047484574555475530036
0.0047715095047364021463
0.0048984508368441698548
0.0052783918094031351265
0.0056667472534484694333
0.0059598366310920298031
0.0061673415003105575352
0.0062923414778612895074
0.006350137796486194329
0.0063787330677645033561
0.0064297646391357765605
0.0065858906443675693451
0.0071386584518463589225
0.0078299162948704779941
0.0081879797453836260929
0.0082817239223757048439
0.0082707916231817158598
0.008205641875360339399
0.0081899841043395864293
0.0082535692683401370995
0.0086261125716773842664
0.0094618753123122973508
0.010026000344288481594
0.010269871176272418398
0.010311037214216245764
0.010296009163992552241
0.010292949411673317853
0.010376958205487514519
0.010679669108857739804
0.010843622449547396513
0.010848171512581831349
0.010741483876117308496
0.010491440596590429282
0.010401090175582472161
0.010406946124935555209
0.010494950829464777531
0.010735649584006476745
0.010922218995437320277
0.011050624724784059369
0.011152500078811085349
0.011229852962150781159
0.011275152841440020182
0.011287820015096022147
0.01128375762528313446
0.011243836782153286691
0.011136309320800685113
0.011066665066337584566
0.011043098719233522889
0.011042514646379677015
0.011060568923842729536
0.01114570623924969299
0.011289510299552021205
0.011380663891315513647
0.011425443532655248438
0.011453556275320093266
0.011500656405675557109
0.011615264335712607163
0.0118071366860374935
0.011996812113171417477
0.012157952050857446374
0.012287952846651288563
0.01240252473123101308
0.012518331938128719402
0.01264587629429419352
0.012782377942378702132
0.012918135584066263097
0.013044417412312696997
0.013159983369290070843
0.013269169809214040323
0.013382142099176702957
0.01351035271537716527
0.013659704722648330008
0.01382828118659303572
0.014005751179129539638
0.01418033996620520279
0.014340766433834254562
0.014480453308277865809
0.014600642865624263722
0.014709902055027689396
0.01481987628579070973
0.014943493965040985025
0.015082889451267466469
0.01523779009861573816
0.015400241994800462769
0.015559875688507963237
0.015706694278203349457
0.015833311907213050429
0.015937961114989220024
0.016024493856129518737
0.01610513088189952785
0.016194574305057534563
0.016307010568512407545
0.016449700581537215344
0.016619157976145052663
0.016805745276844842595
0.016996230246597607977
0.017177353404010400895
0.017338556531973626368
0.017475751457964650015
0.017587639197346491976
0.017676155487523072946
0.017748057400134402417
0.017810945307971969009
0.01787450219204239979
0.017948314703082193095
0.018040019416741329833
0.018153628064070288783
0.018291046280076963398
0.018448515958058006592
0.018619600663438283517
0.018796797092582563649
0.018974787922230184484
0.019148364374647074831
0.019312089973862866382
0.019460999205415021457
0.019593503408621454343
0.019707962208319388525
0.019802931410757992903
0.019880762234158105839
0.019942368349091802587
0.019989335482253983711
0.020022415961470741569
0.020044722400917931726
0.020058332924768839528
0.020063898980603879496
0.020065055383995163835
0.020063200431788781597
0.019118977662661809647
0.019100790165497736478
0.019082332518518617392
0.01906333673769152609
0.019044076857060634328
0.019024778314926559658
0.019005214171040372279
0.018985293846359656278
0.018965300787442695291
0.018945610769971480553
0.018926081717725643655
0.018906366569795607369
0.018886150667141644865
0.018865657819195573441
0.018845104545611772451
0.018824986570608839842
0.018805201431313364052
0.018785861493065176414
0.018766416847331702372
0.018746922908062919194
0.018726649053198415884
0.018705880246262036187
0.018684523212384868129
0.01866395447120676454
0.018644204986721722717
0.018625563230152970828
0.018606602951888148029
0.018587409115383757285
0.018567439644760850431
0.018547686816445980995
0.01852777891948366451
0.018508742366412572061
0.018490090784878860514
0.018472557962799257547
0.018454695187922393051
0.018436634129228950812
0.018417004770080978859
0.018396910739707329069
0.01837580991414446141
0.01835519461659713622
0.018334417447981855159
0.018314703392537493715
0.018294884584384361187
0.018275717441986933515
0.018255642604511249094
0.018235743879043850302
0.018214974393942078706
0.018195074316453091479
0.018174859644174715112
0.018155747008433639061
0.018135946714994171519
0.018116857833898689784
0.018096871988830334071
0.01807788712076231416
0.018058369944331104096
0.018040051574274282298
0.018020892545006501895
0.018002511489393850652
0.017983048427877745129
0.017964418889328523377
0.017944438619460458678
0.017924607402395896505
0.017902864795339510501
0.01788169099284540528
0.017859716319889504949
0.017839174830927628096
0.017817683693396244027
0.017797147379446546372
0.017775525502077609008
0.017755169861261802661
0.017733769360105917229
0.017713352810073808297
0.017691563397593812468
0.017671118113591448295
0.017649807790043377936
0.017630273744966378641
0.017609810089097760466
0.017590818410288103224
0.017570531370460322484
0.01755132349923010579
0.017530369397192921421
0.017510520733481371031
0.017489307391531244001
0.017469963106112641055
0.017449784946338978836
0.017431606088366653068
0.017412391408033630474
0.017394814507566233597
0.017375503441834749818
0.017357115259586320538
0.017336491877797677308
0.017316925529882742224
0.017295673076340115776
0.017275801030638891082
0.017254130331900440626
0.01723367001708490942
0.017211536741229875591
0.017191323154050062311
0.01716983365170464057
0.017150383087286759365
0.017129381132818373434
0.017110454110724121479
0.017090048918433298208
0.017071626931300432073
0.017050966376775958389
0.017031701733912607555
0.017010165939726779732
0.016990837643198437173
0.016970260129849146225
0.01695241544581021706
0.016932939100975860636
0.01691526977453371508
0.016894744585190513836
0.016875325131082346414
0.016853132693104715817
0.01683287298326132872
0.016810701018752028518
0.016791007841033284836
0.016769646031420854665
0.016750818983945304358
0.01673049795296934622
0.016712642186828104846
0.016692972838750267522
0.01667528128724669878
0.016655458657150647855
0.016637323718706069353
0.016617317553330537144
0.016599226697501631017
0.016579518665334976035
0.01656160023944217366
0.016541544006045467985
0.016522815032450066663
0.016501953428489930797
0.016483118817541757978
0.016463118731341139234
0.01644605022937106753
0.016428099684750108872