/*--------------------------------*- C++ -*----------------------------------*\
  =========                 |
  \\      /  F ield         | OpenFOAM: The Open Source CFD Toolbox
   \\    /   O peration     | Website:  https://openfoam.org
    \\  /    A nd           | Version:  12
     \\/     M anipulation  |
\*---------------------------------------------------------------------------*/
FoamFile
{
    format      ascii;
    class       volScalarField;
    location    "0.00517";
    object      p;
}
// * * * * * * * * * * * * * * * * * * * * * * * * * * * * * * * * * * * * * //

dimensions      [1 -1 -2 0 0 0 0];

internalField   nonuniform List<scalar> 
75962
(
98910.867170937737683
98895.338482721752371
98762.240000333651551
98743.193269199065981
98773.383046645787545
98845.629544194394839
98875.261040104043786
98829.678280456748325
98805.307409411223489
98884.632109109501471
99006.891527616069652
99016.865005494459183
98910.440224989913986
98794.035491738206474
98768.473495874684886
98839.954710317208082
98875.531169842914096
98806.938098924205406
98710.268967889467604
98661.384819774684729
98640.218669778114418
98604.108705554361222
98560.677130344265606
98547.112813280167757
98569.51236786111258
98611.124332774677896
98663.582474251117674
98706.390825031659915
98706.563353494333569
98659.497866165766027
98598.771809537836816
98565.767309098184342
98571.56957006304583
98598.887363742091111
98625.498776633947273
98642.754451675689779
98657.645108829077799
98669.853713377757231
98660.232337511391961
98628.900875250401441
98593.053394152404508
98568.166675855900394
98565.376562322868267
98582.832319223554805
98593.053631495844456
98568.748610209746403
98526.082028845936293
98499.347589211669401
98503.220876239880454
98525.263996240333654
98546.559035833881353
98550.734540401361301
98533.386874930089107
98508.919893739439431
98498.952191206786665
98505.836998121609213
98512.53341766219819
98505.849274810389034
98496.574940104677808
98502.804603950906312
98511.526181790162809
98498.800140002233093
98472.104242536486709
98460.185557346456335
98468.866462392717949
98477.673131273229956
98470.568475782623864
98454.707376303646015
98440.599684004948358
98422.465423387591727
98396.134330572836916
98367.68110301719571
98348.581809899391374
98335.639701865846291
98326.113058034650749
98324.975779113839963
98343.611589861582615
98376.773966476714122
98408.665172701017582
98416.295921423108666
98403.188516627546051
98396.07862907119852
98415.556297745308257
98455.476179450313793
98485.794490296786535
98482.512048169694026
98448.590973910831963
98412.948938033470768
98400.095928208655096
98408.833457683169399
98414.144644606567454
98396.055043217536877
98359.810673702784698
98330.130368832818931
98324.160243861624622
98340.458832024945877
98365.959557372319978
98389.82182626593567
98407.435572754839086
98414.664351440529572
98410.218828875658801
98395.648290276891203
98381.000525594150531
98375.263752858722
98380.167640212355764
98387.638164792777388
98390.189539226863417
98388.072476875298889
98389.559501430980163
98398.524484402005328
98414.472111054856214
98434.097109275389812
98458.042048291012179
98487.751413757083355
98515.069709045288619
98525.551452017884003
98508.821827968320576
98469.193361108045792
98423.495181085192598
98387.632911803200841
98365.034606267290656
98347.512999056067201
98327.333848592359573
98305.803826492148801
98290.134852756396867
98287.420732776881778
98296.497695252168342
98309.934295890474459
98318.544359522478771
98318.40639282365737
98314.216651942755561
98315.475919748030719
98328.321884410252096
98349.936946024987265
98370.521390025198343
98382.288475915236631
98388.14615572229377
98398.162465719462489
98420.950734991012723
98454.274672692015884
98486.617447104479652
98506.834784030288574
98511.972836079497938
98507.44083740656788
98501.365497797902208
98498.96307198368595
98501.599498731375206
98508.9351275832596
98519.897396453248803
98532.249446756541147
98543.352748544028145
98550.96337912454328
98554.274260601581773
98554.641470151924295
98555.558904747493216
98560.73224180858233
98571.078540066286223
98584.194635086882045
98596.763635378942126
98607.174612422837527
98617.856192389648641
98632.165653764386661
98650.70806739636464
98670.753872607645462
98687.7572311515396
98698.447987106759683
98703.167262393733836
98705.358747112724814
98708.700742608853034
98715.062376252899412
98723.300833474189858
98731.84347752816393
98740.949678222299553
98752.688683726912132
98769.597308822980267
98791.953854189996491
98816.788293258010526
98839.015970765758539
98854.029641464629094
98859.889571198567864
98858.295612990114023
98853.23019983015547
98849.212422364216764
98849.625466219411464
98855.606362583333976
98864.867833929762128
98871.668038651216193
98869.259963813921786
98534.590309085688205
98538.298166336753638
98539.950208860245766
98540.732893043357763
98541.930762019648682
98543.474247819409356
98544.293263743034913
98543.605021550436504
98541.963963617934496
98540.889629699173383
98541.470513780688634
98543.638150855796994
98546.824575286460458
98551.288839148983243
98558.544248988153413
98569.996177053952124
98584.573553783266107
98597.668933387729339
98602.936071551943314
98596.095910169897252
98578.118739276833367
98555.364781352705904
98536.352291767194401
98527.440397802492953
98529.901745743642095
98539.861536351265386
98551.130056482870714
98559.265789482626133
98564.179969515302218
98569.347980108446791
98578.92585930560017
98594.811042063738569
98615.44738759615575
98636.885586078875349
98655.105397339371848
98668.020088785677217
98676.143397159205051
98681.802145755573292
98687.49515587942733
98694.647711328769219
98703.050092446035706
98711.376719354069792
98717.925435456389096
98721.83213362636161
98723.089804098868626
98722.689493451442104
98722.211029088910436
98723.285763751482591
98727.196054099302273
98734.989048013638239
98747.418223636428593
98764.795341583827394
98786.957413046169677
98813.357345208642073
98843.083527399983723
98874.761967356040259
98906.182417501899181
98934.214391894231085
98955.274912596025388
98966.720194567446015
98967.680947528628167
98960.032805612732773
98947.706535593999433
98934.950312773886253
98924.774809694077703
98918.044357068225509
98913.708242598077049
98909.669253523738007
98904.082144914311357
98896.349898004657007
98887.268046342782327
98878.394235940329963
98871.319002210148028
98866.938942210064852
98865.021082800332806
98864.239376429803087
98862.742148045348586
98859.033149149181554
98852.769486501754727
98845.161941479556845
98838.755721435372834
98836.723969748913078
98841.609024953795597
98854.109485952183604
98872.273347775175353
98892.29490597268159
98909.895542356054648
98921.839944135062979
98926.949372606512043
98926.135263322896208
98921.322681163408561
98913.99655770076788
98904.48132776413695
98891.997766306667472
98875.792689828303992
98856.185386431054212
98834.953966452332679
98814.849477095223847
98798.378834414703306
98786.741243746757391
98779.28175764446496
98774.07163069069793
98769.051382427511271
98763.222011224395828
98757.080044855087181
98752.187314798255102
98750.031727075547678
98750.891369195116567
98753.319912968610879
98754.372800496566924
98750.638355775605305
98739.534597719306475
98720.337914706775337
98694.543814784308779
98665.288915688128327
98636.281055862971698
98610.682297842999105
98590.337486760035972
98575.609143883979414
98565.624224490282359
98558.808460323882173
98553.467542282160139
98548.268667013238883
98542.490668379512499
98535.983420590695459
98529.006929679380846
98522.042807669437025
98515.676432317733997
98510.572013581491774
98507.382269128967891
98506.702810158749344
98508.930026197704137
98514.137301721930271
98522.001765563501976
98531.660273199042422
98541.765875425902777
98550.742020921301446
98557.155811184682534
98559.95969513754244
98558.788806498225313
98553.884227749396814
98545.961289626866346
98536.20702881347097
98526.210263916116673
98517.674458377761766
98512.131808580365032
98510.613110515245353
98513.24381852899387
98519.150815749831963
98526.703283100578119
98533.916846714884741
98538.876116288258345
98540.186716191485175
98537.351624356917455
98530.849704930878943
98522.037719459520304
98512.848115943037556
98505.298238686300465
98501.006101728242356
98500.847936701888102
98504.84326386480825
98512.354921996884514
98522.141816429066239
98532.732435413025087
98542.770349722006358
98551.206611985995551
98557.294150558853289
98560.525881713096169
98560.56222703793901
98557.176105450853356
98550.383063121757004
98540.487607806295273
98528.26630695759377
98515.020805545005715
98502.268953276201501
98491.302343561023008
98482.902458233918878
98477.275071724376176
98473.973817020043498
98471.945199391440838
98469.880549314344535
98466.790829668927472
98462.355789956607623
98456.944540574884741
98451.437277832636028
98446.899998395339935
98444.144453401298961
98443.441658179290243
98444.536407305349712
98446.884563398431055
98450.035319550064742
98453.910798864599201
98458.802170860668411
98465.137559455339215
98473.12574191740714
98482.411784759067814
98491.867854647745844
98499.747249312102213
98504.282071575798909
98504.255710236961022
98499.498931581096258
98491.035383181239013
98480.895048554171808
98471.719370245395112
98466.23095306182222
98466.600154317333363
98473.876443508372176
98487.763078808435239
98506.698200285900384
98528.199020737782121
98549.380041993805207
98567.60779598672525
98581.144002928747796
98589.380017923860578
98592.655248659226345
98591.982410407086718
98588.697743988872389
98583.958350192609942
98578.464899839251302
98572.424045544205001
98565.767071074107662
98558.507326974940952
98551.008705939733773
98543.967359657777706
98538.256039075902663
98534.869829666786245
98534.747398791252635
98538.399895472713979
98545.652762698126025
98555.725466467876686
98567.393637083674548
98579.291441777313594
98590.262717619276373
98599.690070344120613
98607.534414788286085
98614.194911015889375
98620.184059239094495
98625.85082122386666
98631.293899116921239
98636.310774774232414
98640.547002820472699
98643.491976523480844
98644.914578708761837
98645.10661758214701
98644.805240901157958
98644.953528326877858
98646.372217882948462
98649.596850800866378
98654.653024631625158
98660.9203170312976
98667.255643799420795
98672.328018683838309
98675.019918856938602
98674.69410027723643
99169.372675571314176
98832.791178849773132
98662.150293691302068
98574.713728922826704
98606.82768709283846
98835.446892245250638
98963.651129941281397
98886.862816404638579
98770.975090739157167
98807.030668845327455
98973.118692852571257
99021.097850633173948
98913.636894660667167
98818.92081201725523
98798.435279494631686
98799.791383605246665
98776.755999870802043
98741.705682294457802
98718.544365464753355
98708.719703535418375
98690.602409563507535
98638.650502951204544
98576.611441184402793
98539.9531327659206
98549.504948933550622
98593.513374976595514
98649.343395926975063
98688.911815721643507
98687.196932055376237
98644.966786563556525
98593.148810882106773
98575.928103531521629
98606.495689868184854
98650.563602023787098
98670.076475375084556
98663.720449906599242
98669.37265223225404
98678.803157866001129
98661.134057086994289
98613.273650416871533
98568.234273424037383
98558.651114984619198
98586.423012414757977
98626.786261334113078
98639.721233376098098
98610.585870999697363
98567.225289505935507
98548.301936600168119
98558.940427386391093
98571.053744048491353
98570.933049859813764
98573.59245719583123
98581.865470840595663
98581.582706121858791
98566.196259588497924
98546.84255016980751
98530.354029392779921
98518.200539097684668
98515.759242777116015
98532.791338931652717
98547.760518373223022
98538.582504779522424
98513.401194432022749
98499.978704992376151
98507.748004911045427
98515.867897771997377
98507.869055805131211
98483.511053637950681
98450.751443733461201
98412.752720874748775
98380.655721596078365
98369.702612420165678
98378.455366616428364
98389.832163867642521
98391.389072453035624
98388.347842526942259
98397.826914634380955
98427.992060597520322
98463.035877417307347
98478.665902389082476
98469.044626828399487
98448.92013746581506
98442.102177107386524
98456.502567204879597
98474.469580087898066
98471.00008492343477
98440.522471487667644
98403.345040669984883
98384.37006978772115
98387.706502437562449
98392.88383261380659
98381.211764683714136
98355.087764597585192
98332.970098826393951
98327.811918063845951
98340.147730778291589
98363.417298814267269
98389.762379744133796
98412.082890269855852
98420.739386570785427
98411.224352362012723
98389.331830553186592
98369.057742277771467
98363.025194218396791
98373.138816101360135
98388.367431625229074
98394.994054767448688
98388.558929350721883
98377.698410957527813
98373.546399593527894
98380.392193505977048
98396.384054185327841
98419.250756315886974
98447.972771875560284
98475.466251255420502
98487.776783524721395
98474.27796908817254
98437.549585072440095
98393.501821574391215
98358.203983422616147
98336.267927652355866
98321.63818204026029
98307.462691012988216
98293.245118652514066
98284.196271221764619
98284.22001576286857
98291.945911118484219
98300.903439408430131
98303.641632874612696
98297.493205472492264
98287.944184690553811
98285.390439689101186
98297.219038823532173
98321.835274962460971
98349.347043467423646
98369.97423169441754
98381.668632732587866
98390.37923963018693
98402.264853749729809
98416.665136757103028
98427.987842622533208
98432.290777962567518
98431.304248022817774
98430.556030329476926
98434.324584565067198
98443.991388083755737
98458.552134096142254
98475.582184895349201
98492.24723409312719
98505.108165951765841
98511.688741241319804
98512.430296791135333
98510.509596848016372
98509.640570365649182
98512.738110088932444
98520.985651402108488
98533.611777459431323
98549.320983303157846
98566.179312700827722
98584.286635213662521
98605.309233462015982
98629.856512715283316
98655.324484798271442
98675.634234582903446
98684.046659759391332
98678.437607343264972
98664.362773191867745
98651.84243969579984
98649.871193655664683
98661.401930602936773
98682.378909170278348
98705.384137852510321
98725.603431185896625
98743.228885409160284
98761.607472074436373
98782.206493291261722
98802.494292279036017
98817.29348080472846
98822.905647843857878
98820.187643506389577
98814.083305524240131
98810.402641856489936
98813.087182158196811
98823.261409290411393
98839.047944219433703
98855.72799106912862
98866.622378432643018
98865.251497777018812
98849.081501661668881
98525.437076636429993
98532.091409306929563
98538.04440878200694
98541.325014413421741
98542.493875868793111
98542.742855126867653
98542.343505890952656
98540.968966578046093
98538.699284569040174
98536.470288590047858
98535.610120122408262
98536.702995093699428
98539.158414364763303
98542.122909990823246
98545.838788911467418
98551.927203193117748
98561.894708118925337
98574.850533410412027
98586.693785826530075
98591.854865110479295
98586.745403192340746
98572.472883563750656
98554.884490986645687
98541.590345507662278
98537.762065027767676
98543.450835810755962
98554.176708615530515
98564.092177375219762
98569.674281961735687
98571.73644609672192
98574.571881187555846
98583.003245483501814
98599.267909578135004
98621.638429588245344
98645.305303354791249
98664.828570744095487
98676.903411366598448
98681.70839733039611
98682.45132824020402
98683.360285836344701
98687.837981718883384
98696.973339898671838
98709.694176962584606
98723.358266195791657
98735.229584022774361
98743.789978978340514
98748.894268849981017
98751.584713459335035
98753.628091855687671
98756.875161823467351
98762.96461231597641
98773.239455588816782
98788.611615374495159
98809.469795094773872
98835.49176137210452
98865.503895760688465
98897.444733084281324
98928.313051994729904
98954.482340120477602
98972.575904500932666
98980.525511320418445
98978.333715606320766
98968.441773551385268
98954.693435451859841
98940.969141455178033
98929.81755460248678
98921.689426114375237
98915.278067851773812
98908.598997195105767
98900.249077134329127
98890.060750336924684
98879.09357226472639
98869.034849108677008
98861.491302200593054
98857.344444082031259
98856.321719378829584
98857.07104226325464
98857.677984534471761
98856.529012849336141
98853.052288858074462
98848.163511261926033
98844.102487268173718
98843.763788835407468
98849.424601705235546
98861.629780032570125
98878.539826610125601
98896.744557317753788
98912.337668564243359
98922.563767816667678
98926.580768413565238
98925.215950222831452
98919.855701134321862
98911.382473671154003
98899.605896816341556
98883.779275822467753
98863.655353933849256
98840.433905311612762
98816.726770274282899
98795.69205248504295
98779.701990516143269
98769.145951359852916
98762.397669227459119
98756.800264819743461
98750.237651326751802
98742.265028580106446
98734.236658559762873
98728.435682259761961
98726.583552113210317
98728.540663826497621
98731.964087231157464
98733.052168675378198
98727.988912769738818
98714.430742985627148
98692.39103925890231
98664.234863116886117
98633.861552261500037
98605.427936983935069
98582.10932225669967
98565.356213844846934
98554.847751575100119
98548.943182506758603
98545.462328092340613
98542.409699431926128
98538.455447952481336
98533.161981206169003
98526.746580796971102
98519.759930748143233
98512.795727599717793
98506.342710287339287
98500.775162323945551
98496.35457203174883
98493.346061514908797
98492.07371550136304
98492.969333877917961
98496.379071020681295
98502.332042143796571
98510.159662752543227
98518.495835937079391
98525.671700625505764
98530.168597708296147
98531.058253808150766
98528.241284177856869
98522.381955340024433
98514.750159651783179
98506.945253744430374
98500.602853646414587
98496.879286148236133
98496.278956656562514
98498.500818821179564
98502.521742217781139
98506.8407612380106
98509.982969891003449
98510.773660382415983
98508.54228249573498
98503.356254757978604
98496.063954622106394
98488.130653219894157
98481.311175500770332
98477.2891017744696
98477.258131528025842
98481.633454464899842
98489.94493220782897
98501.05895438650623
98513.500273258774541
98525.692809668718837
98536.347196298025665
98544.62192409261479
98550.099954953664565
98552.577805629829527
98551.920496497070417
98548.036155347785098
98540.986558994933148
98531.165737383096712
98519.406385545720696
98507.040186753190937
98495.74012505247083
98486.98974148943671
98481.58127354287717
98479.438321049892693
98479.77251378177607
98481.273381256251014
98482.437958543363493
98482.100888233821024
98479.823781294573564
98475.94043885798601
98471.323730441959924
98466.953004482915276
98463.615992273655138
98461.59960547873925
98460.705272361796233
98460.469426463561831
98460.582070111006033
98461.186104144275305
98462.873453749503824
98466.426933364287834
98472.380705592557206
98480.66630538229947
98490.445808832038892
98500.141569219442317
98507.829782115280977
98511.91471198805084
98511.718296535735135
98507.738506880865316
98501.625919134152355
98495.735560627930681
98492.540832883561961
98494.135314110782929
98501.710606977809221
98515.193111125103314
98533.240330558430287
98553.511007230103132
98573.256286499541602
98589.964291697469889
98601.877136990515282
98608.357617395085981
98609.805729203610099
98607.350248780436232
98602.441022002531099
98596.404271218983922
98590.090607305857702
98583.817552422100562
98577.614810270897578
98571.486420583751169
98565.606299934981507
98560.5060058664385
98556.926471406171913
98555.563374797027791
98556.86598518685787
98560.9294333831931
98567.46240165058407
98575.917633414224838
98585.655783515132498
98596.05908877265756
98606.636586809167056
98617.142396707873559
98627.560722468129825
98638.029755503113847
98648.541941940799006
98658.715810021909419
98667.832743096674676
98675.127458964445395
98680.021749079984147
98682.324730100473971
98682.299981839460088
98680.713219571465743
98678.660653603335959
98677.316365977720125
98677.575688274242566
98679.742388690458029
98683.427017382462509
98687.760071592638269
98691.624263606907334
98693.849464498300222
98693.580367619229946
98690.547784285910893
98860.697806551441317
98793.713899917711387
98658.041161658635247
98719.553238649401464
98728.724559022200992
98863.050388531104545
98973.756297472165897
98900.512242228054674
98732.132156053587096
98713.554892145853955
98893.700715829036199
98974.557856470550178
98890.718423302940209
98836.980575797497295
98825.529796586211887
98752.822871220574598
98673.933618037524866
98674.933281770223402
98712.548422198597109
98721.32540096147568
98704.764971288997913
98672.270343917494756
98624.889847466081847
98578.12973648343177
98564.083588344758027
98590.094777677848469
98640.222500704112463
98679.489209872306674
98677.425061644069501
98640.057755130896112
98608.706368228435167
98618.090531539332005
98656.66380179526459
98678.803930610069074
98669.907570465948083
98661.797337047872134
98676.749404155678349
98690.58933493992663
98675.942197231925093
98632.869753077509813
98594.676873711228836
98596.063064577116165
98640.624183873747825
98689.04883551626699
98696.301690705266083
98658.577776369347703
98615.707816171605373
98602.568844734705635
98610.49670293192321
98610.547043287035194
98605.849326080176979
98620.667126423024456
98646.950255515665049
98650.176770864520222
98619.393143592300476
98579.359647712990409
98553.803989976338926
98545.860618219696335
98556.337476963570225
98578.529542027579737
98594.096933350418112
98585.923564670825726
98558.441224427486304
98535.625031428207876
98527.374471590635949
98520.448332978805411
98504.500194319320144
98478.474464500686736
98445.111314005771419
98414.744111135209096
98402.599879561399575
98418.170341334567638
98445.596768207702553
98460.808309383137384
98458.716125093837036
98455.66889458958758
98471.699455803754972
98510.789136754887295
98547.892550018848851
98557.784405430138577
98530.722410863090772
98484.198602229764219
98447.485870774355135
98439.510642647728673
98451.149388313293457
98454.417685966167483
98432.811102236039005
98395.857993536963477
98369.474005818818114
98364.422422748320969
98370.847525706209126
98372.328219788978458
98363.83232760928513
98354.077487947157351
98349.594559695426142
98355.232465702691115
98370.286044266817044
98389.354294926233706
98403.568046827887883
98404.155677084272611
98390.033759613783332
98371.415586220726254
98359.187298350720084
98361.470753110173973
98376.19243809285399
98395.010241323238006
98403.76095487078419
98396.126850981177995
98378.947389123059111
98366.487587893905584
98365.491785952166538
98375.788954189760261
98392.38100072236557
98411.954447750526015
98432.130975999345537
98442.019345826163772
98431.338618152745767
98400.860737912065815
98362.054378001426812
98328.549022901424905
98306.941890566755319
98295.236637209454784
98288.835201783396769
98285.681328657054109
98286.482957731714123
98290.672926680665114
98295.392279392559431
98295.749794660179759
98288.634868720517261
98275.138657938266988
98261.808966528697056
98258.21042260689137
98270.888402136377408
98298.013427268670057
98330.435827057866845
98357.488247429515468
98373.883511953041307
98381.443193721948774
98383.92809475530521
98382.621507679083152
98376.92684210347943
98368.328140987621737
98361.635509635481867
98362.21889407056733
98372.785805397288641
98392.194203673920128
98416.949564032067428
98442.224452312744688
98461.847805520927068
98470.902172548143426
98468.641283768112771
98460.001165099369246
98452.556049958220683
98451.806165623303968
98459.035498042518157
98472.558988289689296
98489.643949130870169
98509.190559098118683
98531.760856228152988
98559.226969233495765
98591.748282670683693
98626.230173246949562
98655.896645388376783
98671.313478062365903
98666.013958211915451
98641.862200878502335
98609.920804637120455
98586.047452209953917
98582.447339389007539
98601.594005201783148
98636.190618088163319
98674.118924376452924
98706.266409715855843
98731.088207924112794
98751.543283317732858
98769.321815347473603
98782.131691669783322
98786.123768078163266
98780.866428630935843
98771.178776355125592
98764.156024817624711
98766.0211052998784
98778.788900285304408
98799.906235374262906
98823.921407564514084
98844.477605807638611
98855.633064218462096
98853.115639376934269
98836.496507501709857
98527.363730927754659
98532.425258224291611
98538.640347295149695
98543.477619744458934
98545.769758105117944
98545.410576563313953
98542.599773096051649
98537.945907265893766
98532.783792933361838
98528.989171052904567
98528.099121822058805
98530.246715628469246
98534.19609214324737
98538.587017386686057
98543.273632756085135
98549.534332208553678
98558.616332309160498
98569.802469575719442
98579.874924560048385
98584.558426217045053
98581.264887463097693
98571.242597871983889
98559.300795000963262
98551.408034197695088
98551.421947127470048
98558.887941707944265
98569.642321777908364
98578.735531715734396
98583.478815090667922
98584.980287349317223
98587.45181137236068
98595.610461305026547
98611.701340856699971
98633.892708908300847
98657.0511197111191
98675.253986113952124
98684.800218044649228
98685.914089078258257
98682.346027554231114
98679.739372298572562
98682.943278392282082
98694.286525436051306
98712.411697787640151
98733.691692346677883
98753.717224945430644
98769.495940922555747
98780.171210111409891
98786.462609434718615
98790.180630511575146
98793.4088016099995
98797.926099785749102
98805.187208639850724
98816.464328651461983
98832.687719690045924
98854.082756885152776
98879.834798843687167
98907.772418269509217
98934.478682296321495
98956.083204877897515
98969.51151016606309
98973.523574714956339
98969.18083035449672
98959.255868905675015
98947.164391926038661
98935.786896911056829
98926.467907191385166
98918.803232430393109
98911.285143333734595
98902.418296101619489
98891.566219529864611
98879.249690572425607
98866.88706621088204
98856.244083092242363
98848.82073914053035
98845.347490553162061
98845.478495498609846
98847.906368277675938
98850.73658261714445
98852.278456839485443
98851.724510058949818
98849.655400432864553
98847.921508608633303
98848.91430581494933
98854.483870578565984
98865.0229065282183
98879.072718464260106
98893.834514992020559
98906.288706646751962
98914.336345391959185
98917.361055446614046
98915.942610120546306
98910.868168678920483
98902.23879195045447
98889.335001199739054
98871.316804098183638
98848.386498363121063
98822.44403816270642
98796.82348180002009
98774.99950641405303
98759.14081357116811
98749.130581567849731
98742.694329205711256
98736.764408682385692
98729.241198833551607
98720.047692331005237
98710.998351429938339
98704.637791333283531
98702.642450717656175
98704.484891030588187
98707.284046488479362
98706.854930846340721
98699.426659670541994
98683.190152405732078
98658.97401683658245
98629.935560735699255
98600.524323536461452
98574.937123664902174
98555.92105657090724
98544.176705414341995
98538.457764255595976
98536.313450622430537
98535.094172261262429
98532.83960452915926
98528.701139720214996
98522.913826352771139
98516.340309900100692
98509.828670720700757
98503.83219408657169
98498.316359030315652
98492.951192987340619
98487.489425023770309
98481.987449277119595
98476.934425314684631
98473.259952801075997
98471.961298499722034
98473.811950017639901
98478.813015589053975
98486.015966958424542
98493.72600554820383
98500.129413380476763
98503.714886321671656
98503.822847747171181
98500.749786095009767
98495.567439683451084
98489.743354354141047
98484.797222895635059
98481.737468392035225
98480.894285077403765
98481.969059307026328
98484.073572829394834
98486.005393782033934
98486.571995863967459
98484.960373594367411
98480.811864800765761
98474.378821567122941
98466.655712185092852
98459.151868501314311
98453.631060837302357
98451.718908355978783
98454.503569911234081
98462.21020663274976
98474.061418902900186
98488.490597793803317
98503.589887898080633
98517.524192741664592
98528.929272917783237
98537.075060694987769
98541.860191749539808
98543.485613428259967
98542.173157417186303
98538.096931188410963
98531.480064257964841
98522.783423276196118
98512.796236784866778
98502.711283725118847
98493.973899310614797
98487.956451075297082
98485.438060905769817
98486.309310731332516
98489.655118878319627
98494.095424286526395
98498.129024301815662
98500.505174406222068
98500.565189840417588
98498.354907852757606
98494.490188264418975
98489.823933275401942
98485.130444725509733
98480.865694477644865
98477.131709553577821
98473.809903834015131
98470.813946234979085
98468.383966377819888
98467.20362548045523
98468.156070219687535
98472.02414562953345
98479.067034246327239
98488.763311751928995
98499.920813568562153
98510.859600154464715
98519.803529161203187
98525.52971917144896
98527.768966186748003
98527.356209343342925
98525.993534940527752
98525.728872762032552
98528.430950202644453
98535.351587415018003
98546.72656254771573
98561.675744527645293
98578.421742241698666
98594.69829522020882
98608.373816547624301
98617.939133494204725
98622.813399345352082
98623.390031671646284
98620.683309843821917
98615.927505295665469
98610.312971338018542
98604.684999169345247
98599.40783745610679
98594.524408775003394
98590.015880559469224
98585.998886728804791
98582.853229491069214
98581.143757523430395
98581.381348983937642
98583.741123433006578
98587.977406733567477
98593.601507682556985
98600.105029477286735
98607.195497057226021
98614.926868334805476
98623.638699909759453
98633.741877007239964
98645.489066239708336
98658.788213763560634
98673.054963031958323
98687.18940211784502
98699.802997136459453
98709.571021894618752
98715.655721491508302
98718.000966002466157
98717.336416928184917
98714.867694187822053
98711.945702455195715
98709.794495268797618
98709.158596544133616
98710.078746929881163
98711.943374365146155
98713.753442682878813
98714.427181544204359
98713.176262818771647
98709.724057754545356
98704.282582789222943
98697.44937739254965
98590.90653944578662
98648.384151296821074
98635.414079184018192
98702.842710746452212
98713.865979670925299
98801.477000809842139
98899.755595510141575
98897.427840685340925
98782.921861029972206