/*--------------------------------*- C++ -*----------------------------------*\
  =========                 |
  \\      /  F ield         | OpenFOAM: The Open Source CFD Toolbox
   \\    /   O peration     | Website:  https://openfoam.org
    \\  /    A nd           | Version:  12
     \\/     M anipulation  |
\*---------------------------------------------------------------------------*/
FoamFile
{
    format      ascii;
    class       volScalarField;
    location    "0.00517";
    object      pMean;
}
// * * * * * * * * * * * * * * * * * * * * * * * * * * * * * * * * * * * * * //

dimensions      [1 -1 -2 0 0 0 0];

internalField   nonuniform List<scalar> 
75962
(
98731.308449322066735
98731.473708597724908
98731.082345018352498
98730.911896563484333
98730.85868290347571
98730.708658408446354
98730.467182255873922
98730.212687603197992
98729.961327588782297
98729.659617576922756
98729.236751641772571
98728.722696995566366
98728.217990301462123
98727.769254815371823
98727.339363902399782
98726.856276989652542
98726.302337264714879
98725.728074915139587
98725.179889827166335
98724.648967791581526
98724.113882547084359
98723.5801903551328
98723.067029326644843
98722.572660570964217
98722.079910185246263
98721.57702586427331
98721.057366056818864
98720.516178782461793
98719.965761572762858
98719.436631097138161
98718.951590229771682
98718.504702550853835
98718.070027096444392
98717.625402457284508
98717.167689124398748
98716.703714491231949
98716.235836363281123
98715.762731029331917
98715.290501906347345
98714.833890303503722
98714.399458207932184
98713.981742869218579
98713.569385185546707
98713.148592148529133
98712.712605399268796
98712.274253675685031
98711.853347004202078
98711.450948208104819
98711.051111658249283
98710.639720935316291
98710.213143326109275
98709.77678724990983
98709.344085207791068
98708.92719338129973
98708.526022892125184
98708.131303411282715
98707.737770777443075
98707.351860488604871
98706.978331429345417
98706.609481691033579
98706.2341636443889
98705.858084942505229
98705.496453449202818
98705.15120523267251
98704.809743844089098
98704.464508733697585
98704.122200857644202
98703.789674897940131
98703.466599204170052
98703.151288670080248
98702.847671370080207
98702.560226878369576
98702.286785948759643
98702.025138401382719
98701.776039539065096
98701.537478462894796
98701.300732175892335
98701.054775630691438
98700.791448771720752
98700.519680538185639
98700.257819540376659
98700.012727552122669
98699.773882195513579
98699.523752023029374
98699.256165894141304
98698.984012929300661
98698.728046521835495
98698.497959854197688
98698.286389554952621
98698.07881207652099
98697.86867062280362
98697.665248581964988
98697.482695896818768
98697.325514167459914
98697.184604366426356
98697.046302163798828
98696.903055537448381
98696.755244412910542
98696.606893119751476
98696.463210548667121
98696.33034738121205
98696.21383479492215
98696.114966411492787
98696.029472893438651
98695.95025762442674
98695.872654672450153
98695.796811240623356
98695.724880417648819
98695.655996798581327
98695.585571886433172
98695.508286457014037
98695.420295811170945
98695.319251361637725
98695.200700321773184
98695.061462610523449
98694.905135711771436
98694.743435006093932
98694.590223293576855
98694.452663758536801
98694.327850881105405
98694.206989626196446
98694.083435267253662
98693.956512112534256
98693.8283343052899
98693.698663467046572
98693.563129595378996
98693.416901771663106
98693.258252335115685
98693.090459173952695
98692.920815061646863
98692.75590638545691
98692.597326169532607
98692.441610554713407
98692.284398921270622
98692.12541271201917
98691.969280201839865
98691.82172327284934
98691.684142498284928
98691.551415645488305
98691.415268273616675
98691.271497193694813
98691.123103432721109
98690.977780368019012
98690.842183130997
98690.718819300687755
98690.606137044611387
98690.501278273019125
98690.402096621226519
98690.307101280341158
98690.215704858652316
98690.128363999800058
98690.046620076187537
98689.972388523558038
98689.907452791085234
98689.852471781108761
98689.805861167624244
98689.764484584244201
98689.725980759656522
98689.690032075319323
98689.657862646447029
98689.630075209672214
98689.605550964435679
98689.582370112271747
98689.559456973991473
98689.53794339192973
98689.52086520564626
98689.511230320247705
98689.510196820890997
98689.516522143880138
98689.527295098800096
98689.539699425498839
98689.552334812949994
98689.564512127166381
98689.575098605098901
98689.582016018015565
98689.582385473593604
98689.574021299558808
98689.557227636221796
98689.534863601875259
98689.510883386989008
98689.489067448274
98689.471956846726243
98689.460031594251632
98689.451638552782242
98689.443878666425007
98689.43401280134276
98689.42110021438566
98689.407336842064979
98689.85709810629487
98689.871841151907574
98689.882838334306143
98689.89102821155393
98689.896711498498917
98689.899946963210823
98689.901168502576184
98689.901563344043097
98689.902523627184564
98689.904718716745265
98689.907822519293404
98689.911022097832756
98689.913558379223105
98689.914677598106209
98689.913243676230195
98689.907588868431048
98689.896253284241538
98689.879382194194477
98689.859913869629963
98689.843470779625932
98689.836481751510291
98689.843242981136427
98689.864004923510947
98689.894995560389361
98689.930258108841372
98689.964561985674663
98689.995584029238671
98690.024018021547818
98690.051858557751984
98690.080351009528385
98690.108913832591497
98690.135455194307724
98690.157697543458198
98690.174743199226214
98690.187819866026985
98690.199728867170052
98690.213526920168079
98690.231349872905412
98690.253932155406801
98690.280859847960528
98690.311279761692276
98690.344561426813016
98690.380852367976331
98690.420923053156002
98690.465620199800469
98690.515458396548638
98690.570379750337452
98690.629843147704378
98690.692856200039387
98690.75796154026466
98690.823288148269057
98690.886625338433078
98690.945680426928448
98690.998313537347713
98691.042561807262246
98691.076807234188891
98691.100191514342441
98691.113206064197584
98691.118069172720425
98691.118499708405579
98691.118857965717325
98691.123160823859507
98691.133889299570001
98691.151675065790187
98691.175458685378544
98691.203319931388251
98691.233508958728635
98691.265216158964904
98691.298639692889992
98691.334549585764762
98691.373562682114425
98691.415577086008852
98691.459658394218422
98691.504317836806877
98691.548119545128429
98691.590202328952728
98691.630672638144461
98691.670677042842726
98691.711952190104057
98691.7560201636079
98691.803522260073805
98691.853756835029344
98691.904577666529804
98691.95286149068852
98691.99557358387392
98692.030804732028628
98692.058360679948237
98692.079579124168959
98692.096593620357453
98692.111496663870639
98692.125691868393915
98692.139885001801304
98692.154484904633136
98692.170147537966841
98692.18808229707065
98692.209627673306386
98692.235709907268756
98692.266249351712759
98692.299999843438854
98692.334967093818705
98692.369162343253265
98692.401360146497609
98692.431357713547186
98692.459670602547703
98692.486762428015936
98692.512388592353091
98692.535412439916399
98692.554176958277822
98692.567208665015642
98692.573951423037215
98692.575327550206566
98692.573740217660088
98692.572468087877496
98692.574734632493346
98692.58288448843814
98692.597983335755998
98692.619699620729079
98692.64668998576235
98692.677282284726971
98692.710060242927284
98692.744088657927932
98692.778912253168528
98692.814430598562467
98692.850636942050187
98692.887517756826128
98692.925012823470752
98692.963001015115879
98693.001297910115682
98693.039674393265159
98693.077804905435187
98693.115156249870779
98693.150980761769461
98693.184360940169427
98693.214358031822485
98693.240200954634929
98693.261530105039128
98693.2785265717539
98693.29193559390842
98693.303015535289887
98693.313452712318394
98693.325203580316156
98693.340168652852299
98693.359902856187546
98693.385311318168533
98693.416512145893648
98693.452913200875628
98693.493350453558378
98693.536357043514727
98693.58052906631201
98693.624864299330511
98693.668970957092824
98693.71306891569111
98693.757950182145578
98693.804746760419221
98693.85470170796907
98693.908908196419361
98693.968094972064137
98694.032420416406239
98694.10143498837715
98694.174151286031702
98694.24928272368561
98694.325505132859689
98694.401625924670952
98694.476734365627635
98694.550231684188475
98694.621837220911402
98694.691599781930563
98694.759900655888487
98694.82732645762735
98694.894628096371889
98694.962726648052922
98695.03265953285154
98695.105418919134536
98695.18174255923077
98695.261893865914317
98695.345557980035665
98695.431910905943369
98695.519847888004733
98695.608313847638783
98695.696631244922173
98695.784669546395889
98695.872847327336785
98695.96195690408058
98696.052768874418689
98696.145640019414714
98696.240365421472234
98696.336274389468599
98696.432491098006722
98696.528153533421573
98696.622533883826691
98696.715082831768086
98696.805378988137818
98696.892989031257457
98696.977409638944664
98697.058059745861101
98697.134491166420048
98697.206597019234323
98697.274790264797048
98697.340076891909121
98697.404064800837659
98697.468773987260647
98697.536259422020521
98697.608129575281055
98697.685123254777864
98697.7669219346717
98697.852213641323033
98697.938909968055668
98698.024552828152082
98698.106871785057592
98698.184316239043255
98698.256344975365209
98698.323494025811669
98698.387195580246043
98698.449453344059293
98698.512405723333359
98698.577942771473317
98698.647497487982037
98698.722057737686555
98698.802307960795588
98698.888767583543085
98698.981874871664331
98699.082055972205126
98699.189710747596109
98699.305072652816307
98699.427963480717153
98699.557756883150432
98699.693500182358548
98699.834099740561214
98699.978485635307152
98700.125832463643746
98700.275720003992319
98700.428288812589017
98700.58423568859871
98700.744577528268564
98700.910408957657637
98701.082732142516761
98701.262394637888065
98701.450072688021464
98701.646354175245506
98701.851864297263091
98702.06745088059688
98702.294218289127457
98702.533378875319613
98702.786107731546508
98703.053423503268277
98703.33610206884623
98703.634586976404535
98703.949054022552446
98704.279682177730137
98704.626826019957662
98704.991144603831344
98705.373748211452039
98705.77621110335167
98706.200536452903179
98731.185526229324751
98731.355472471666872
98730.44726866374549
98730.518822696350981
98730.700085861521075
98730.601365378199262
98730.285265920145321
98729.946598194495891
98729.676196345943026
98729.409715715199127
98729.014633799859439
98728.496547465270851
98727.987432016379898
98727.535481673548929
98727.08816594981181
98726.602803837493411
98726.084665561371366
98725.554959479166428
98725.015263028151821
98724.458345712380833
98723.890573029653751
98723.33083595331118
98722.804200011640205
98722.310926845777431
98721.831835006232723
98721.34319117560517
98720.833699865703238
98720.302915990818292
98719.765011740702903
98719.246215844177641
98718.762821846932638
98718.308597822237061
98717.857173167096335
98717.3871837843908
98716.903457454725867
98716.421895056715584
98715.942709318973357
98715.457069273819798
98714.975711677616346
98714.521434852707898
98714.104101485863794
98713.707901479443535
98713.304341122071492
98712.873620322789066
98712.422439880203456
98711.977155360393226
98711.557568496224121
98711.158195566924405
98710.757565414562123
98710.344873530091718
98709.926194664920331
98709.506882226953167
98709.082794065747294
98708.657437849673443
98708.240173785699881
98707.838156633311883
98707.452279926976189
98707.079821096209344
98706.718704360406264
98706.35829200707667
98705.988603577119648
98705.617949471532484
98705.260717920944444
98704.92049727900303
98704.585045724277734
98704.24557544614072
98703.908085696632043
98703.581665440346114
98703.269929488757043
98702.975959984454676
98702.700390051672002
98702.439011475173174
98702.179252596644801
98701.916678107518237
98701.65657687462226
98701.404368056944804
98701.156309529396822
98700.90205999610771
98700.631323360066744
98700.350049042317551
98700.074468972699833
98699.817023364710622
98699.575504245629418
98699.336106081245816
98699.088421770051355
98698.837609865644481
98698.599646063797991
98698.385217060087598
98698.190359765954781
98698.000954250717768
98697.809250520323985
98697.620854790264275
98697.44711188483052
98697.293251486713416
98697.153972624801099
98697.020065397926373
98696.884732868129504
98696.745374220248777
98696.602973031956935
98696.463075982930604
98696.334013721352676
98696.223179062377312
98696.132117376662791
98696.054730896183173
98695.981554340964067
98695.904830061568646
98695.824710433269502
98695.746654413320357
98695.674783886934165
98695.606870803239872
98695.536393449088791
98695.456396642839536
98695.362430141045479
98695.250434421061072
98695.117258975355071
98694.965422650944674
98694.805489305770607
98694.650910380689311
98694.509713022605865
98694.379790259583388
98694.253020846022991
98694.122735183933401
98693.987227103702025
98693.847720744801336
98693.704227472218918
98693.554067573815701
98693.3942647461663
98693.224525069192168
98693.049401649070205
98692.87657970917644
98692.712610573871643
98692.558738817169797
98692.410362938404432
98692.260803090350237
98692.106658260920085
98691.950171670454438
98691.796578385328758
98691.649278855125885
98691.506692310707876
98691.365179902917589
98691.223948912884225
98691.085841491032625
98690.954708191697136
98690.832247459358769
98690.717328809652827
98690.607230295659974
98690.499443387292558
98690.392478742578533
98690.286434886191273
98690.182902556131012
98690.085083700410905
98689.996568848000607
98689.919618683838053
98689.854383708341629
98689.799064336097217
98689.750929921865463
98689.706945715399343
98689.664989234079258
98689.624336664419388
98689.584804158774205
98689.54562143763178
98689.505413963197498
98689.46311145031359
98689.419922008208232
98689.380936932386248
98689.353580540264375
98689.343370039801812
98689.350917932300945
98689.37159028784663
98689.397450201533502
98689.421154436320649
98689.439168196084211
98689.451507667370606
98689.459141850777087
98689.46222085908812
98689.4596373073
98689.450402319111163
98689.436124667030526
98689.420832249787054
98689.408911327293026
98689.4031011875486
98689.403478151900345
98689.407505172304809
98689.411361814563861
98689.41145799496735
98689.405811866294243
98689.395083312338102
98689.383373903663596
98689.377391627116594
98690.009753695703694
98690.029734162075329
98690.043926589249168
98690.053111152126803
98690.058585465405486
98690.061157149859355
98690.061446914623957
98690.060535192591487
98690.059811366882059
98690.060313983485685
98690.062175179002224
98690.064601447622408
98690.066579985417775
98690.067496327435947
98690.067012788174907
98690.064392118438263
98690.058282234676881
98690.047449869249249
98690.031986488320399
98690.014390695243492
98689.999543947080383
98689.99311211744498
98689.998960795637686
98690.017075967421988
98690.043700369569706
98690.07349311033613
98690.102226635266561
98690.128478182217805
98690.153497314444394
98690.179570810883888
98690.208025333937258
98690.237833664417849
98690.266022096853703
98690.289401586196618
98690.306530863352236
98690.318640208090073
98690.329185211972799
98690.342367453107727
98690.361430096629192
98690.387577061352204
98690.419939744839212
98690.456395532368333
98690.494824533932842
98690.533998562197667
98690.57390678266529
98690.615361672404106
98690.659478288216633
98690.707242512216908
98690.759061661723536
98690.814627103434759
98690.87293161371781
98690.932365251544979
98690.990865567626315
98691.045935090209241
98691.094810025198967
98691.134930549829733
98691.16449668770656
98691.182956347067375
98691.191364930607961
98691.192369071926805
98691.189796697522979
98691.187861750848242
98691.190125239721965
98691.198701491579413
98691.2139145952533
98691.234684795505018
98691.259409749865881
98691.286878906248603
98691.31667755584931
98691.34914216613106
98691.384914375288645
98691.424364523132681
98691.467143485599081
98691.512127870053519
98691.557736554648727
98691.602389979583677
98691.645079741210793
98691.685810663853772
98691.725564055945142
98691.765892244395218
98691.808263334314688
98691.853385479116696
98691.900697706048959
98691.948240949277533
98691.99317221196543
98692.032861166022485
98692.065653771947837
98692.091377896416816
98692.111282484707772
98692.127350444614422
98692.141541534118005
98692.155263004766311
98692.169311539124465
98692.184331020413083
98692.20134558659629
98692.221809168840991
98692.247166560060577
98692.278074047615519
98692.313882787741022
98692.352707751066191
98692.392073085182346
98692.429921243499848
98692.465348492216435
98692.498775325977476
98692.5313039355824
98692.563730842404766
98692.595800245937426
98692.626107701347792
98692.652676728524966
98692.67389379911765
98692.689343287536758
98692.700318439499824
98692.709656906270538
98692.720872805541148
98692.737126937630819
98692.760374011690146
98692.790951343966299
98692.82774625341699
98692.868749798362842
98692.911832669866271
98692.955364433219074
98692.99851487261185
98693.041216501791496
98693.08385687158443
98693.126944199786521
98693.170772290090099
98693.215315201450721
98693.260348507435992
98693.305571446151589
98693.350719551643124
98693.395513463547104
98693.439687800171669
98693.482880613388261
98693.524542655111873
98693.563949221250368
98693.600246293790406
98693.632686496552196
98693.66091129493725
98693.685119244270027
98693.706165513794986
98693.725557580561144
98693.74516947081429
98693.766931051126448
98693.792392588205985
98693.822489835583838
98693.857386758958455
98693.896567706193309
98693.939154636347666
98693.984198040066985
98694.030926370309317
98694.078915705496911
98694.128173570992658
98694.179085578507511
98694.232352395978523
98694.288846598443342
98694.349352541059488
98694.414369671838358
98694.484021567419404
98694.557984956045402
98694.635494014582946
98694.715481445295154
98694.796765095001319
98694.878278251097072
98694.959233384346589
98695.039183558707009
98695.117983484873548
98695.195716393136536
98695.272643106218311
98695.349131860901252
98695.425691662894678
98695.503030794759979
98695.58202840219019
98695.663629437083728
98695.748678990421467
98695.837735737208277
98695.930876374870422
98696.027573571569519
98696.126760837141774
98696.2271558723005
98696.327664378419286
98696.427702615255839
98696.527294964951579
98696.626994705351535
98696.727681959469919
98696.830249699065462
98696.935290162597084
98697.04288060561521
98697.152602473026491
98697.26381247334939
98697.375845299800858
98697.48813144210726
98697.600251364186988
98697.711895695130806
98697.822691008244874
98697.932068143752986
98698.039315552159678
98698.143740090323263
98698.244950173131656
98698.343022419401677
98698.438572815255611
98698.532769749843283
98698.627232978964457
98698.723760111548472
98698.823921672592405
98698.928601683815941
98699.037759401180665
98699.150398744270205
98699.264763270286494
98699.378712267323863
98699.4902253827604
98699.597871965670493
98699.701146061997861
98699.800542925237096
98699.897435053964728
98699.993768345724675
98700.091697405558079
98700.193217413674574
98700.299921656347578
98700.412832606161828
98700.532498855507583
98700.659283087719814
98700.793477832543431
98700.93531424975663
98701.084935318780481
98701.242367789338459
98701.407450974787935
98701.579711799873621
98701.758398239224334
98701.942632043879712
98702.131613833713345
98702.324783428877709
98702.521917214311543
98702.723165867457283
98702.929019201386836
98703.140115690039238
98703.357062755952938
98703.580419136356795
98703.810677293367917
98704.048349111370044
98704.294097977792262
98704.548816637980053
98704.813621697932831
98705.089814044404193
98705.378762310094316
98705.681726541806711
98705.999712703167461
98706.333337430332904
98706.682917352838558
98707.048608788987622
98707.430562342022313
98707.829139526700601
98708.245146578585263
98708.679838178053615
98709.134831660703639
98709.611946367542259
98729.177870472238283
98730.20261018355086
98730.078303844013135
98730.110700525794527
98730.196891388026415
98730.075863442572881
98729.775008739248733
98729.463342332281172
98729.243209290201776
98729.0623800795438
98728.75280843427754
98728.279979080049088
98727.778256432749913
98727.3058730072662
98726.826741895303712
98726.34324355564604
98725.877009454881772
98725.392610061302548
98724.854701545686112
98724.280949608670198
98723.69899970375991
98723.126586590500665
98722.577007728395984
98722.063901283268933
98721.579876185569447
98721.10013774514664
98720.604464727730374
98720.087676652532537
98719.567431282994221
98719.07072955253534
98718.603093125959276
98718.144232068545534
98717.670588187233079
98717.179325393008185
98716.688499957628665
98716.209943273715908
98715.732479771861108
98715.246763612507493
98714.764729836009792
98714.307195204310119
98713.883803399032331
98713.480473748364602
98713.068872146832291
98712.631083986692829
98712.17789376701694
98711.737231354782125
98711.32311852456769
98710.923657112085493
98710.518358987901593
98710.10629028371477
98709.697942389539094
98709.289245458261576
98708.86632842135441
98708.432741241398617
98708.007823291743989
98707.606801898335107
98707.228225019236561
98706.864646441448713
98706.508701831524377
98706.147540890364326
98705.778728241566569
98705.410379223903874
98705.056630686623976
98704.720753198052989
98704.395763697757502
98704.075822778017027
98703.761895719391759
98703.458238487583003
98703.168148337048478
98702.894632978219306
98702.633698400954017
98702.373353874805616
98702.103610698410193
98701.8267808786768
98701.554428096758784
98701.292372125433758
98701.032434775537695
98700.759142406939645
98700.466132104294957
98700.163224998599617
98699.872200236437493
98699.609792945848312
98699.376896165646031
98699.159063237806549
98698.938511303553241
98698.711244617952616
98698.490284069368499
98698.289914364737342
98698.111258825912955
98697.942615286097862
98697.77315391220327
98697.601757563243154
98697.435028004227206
98697.27859892862034
98697.133142107297317
98696.995744419036782
98696.86201235781482
98696.728506700921571
98696.595187216313207
98696.467783018728369
98696.35389026926714
98696.258046168004512
98696.178076720199897
98696.106617315279436
98696.034044365631416
98695.953473446512362
98695.865990508857067
98695.779266787722008
98695.700440707994858
98695.628953207924496
98695.557835440078634
98695.479059927019989
98695.386755751096644
98695.278419783440768
98695.151830401198822
98695.008229241022491
98694.855633401006344
98694.704630446416559
98694.562386135818087
98694.428621173268766
98694.297201948269503
98694.16184307722142
98694.01925284526078
98693.868829165861825
98693.709839991497574
98693.542093665964785
98693.366408842295641
98693.186186343882582
98693.007212444223114
98692.836247058789013
98692.677876982401358
98692.531227506056894
98692.389792602407397
98692.245834360641311
98692.094512017691159
98691.936138228600612
98691.775493282533716
98691.617613110691309
98691.464565919624874
98691.316648331237957
98691.175461180726415
98691.043464553935337
98690.921672832337208
98690.808619748815545
98690.70030886674067
98690.59221341952798
98690.48110470562824
98690.365791097472538
98690.248136216789135
98690.13328575786727
98690.027618906373391
98689.936194874535431
98689.86039557994809
98689.797825554051087
98689.744245249166852
98689.695574411831331
98689.64888293769036
98689.602504628739553
98689.555788231853512
98689.507363039956545
98689.454962099218392
98689.396858666557819
98689.333727711738902
98689.27022970818507
98689.215746042653336
98689.181316016038181
98689.173994223543559
98689.192836165573681
98689.229048885856173
98689.269845438437187
98689.304054940323113
98689.326269765297184
98689.337093641035608
98689.339801103807986
98689.33689767337637
98689.329402834453504
98689.318634220690001
98689.308095352404052
98689.30270467477385
98689.306155938247684
98689.318711160725798
98689.337127805076307
98689.35581458832894
98689.369296540447976
98689.374437993232277
98689.371198101041955
98689.362748837796971
98689.354943197846296
98689.354730420382111
98690.181277708703419
98690.200514697848121
98690.213994755409658
98690.221534520067507
98690.224006940465188
98690.222896428284002
98690.219993673119461
98690.217282639699988
98690.216298543469748
98690.217552228874411
98690.220406471082242
98690.223459140150226
98690.225356189839658
98690.225429413854727
98690.223522521133418
98690.219346483485424
98690.212144860066473
98690.201028375930036
98690.186198490482639
98690.169994764684816
98690.156827689672355
98690.151477200037334
98690.156833754575928
98690.172528139853966
98690.195226493364316
98690.220409192625084
98690.244741684771725
98690.26743546500802
98690.289975492516533
98690.314585561558488
98690.342204923203099
98690.371499760847655
98690.399269507470308
98690.422132326784777
98690.438657124599558
98690.450397463340778
98690.461235206981655
98690.475795097547234
98690.497641325244331
98690.528061097924365
98690.565754103387007
98690.607522613878245
98690.649884338708944
98690.690435587355751
98690.72851910420286
98690.765122427008464
98690.802009945153259
98690.840888600447215
98690.882895085465861
98690.928272704477422
98690.976582872724975
98691.026920876567601
98691.07773480778269
98691.126708045179839
98691.170971012004884
98691.207655144753517
98691.23464474825596
98691.251299872543314
98691.258757034695009
98691.259819167520618
98691.258258116271463
98691.25789176793478
98691.261624425373157
98691.270834246199229
98691.285382280053454
98691.30424800257606
98691.326328433016897
98691.351104826564551
98691.378715701081092
98691.40975744073512
98691.444850036597927
98691.484137663879665
98691.527017248052289
98691.572198934358312
98691.617993536987342
98691.662843449652428
98691.705805568926735
98691.746713254935457
98691.786249016993679
98691.825654652784579
98691.866231729931314
98691.908664430040517
98691.952592212168383
98691.996543979112175
98692.038293746561976
98692.075679555870011
98692.107384892005939
98692.133276695618406
98692.154296498702024
98692.17194525715604
98692.187740762485191
98692.202817906611017
98692.218031507101841
98692.23435722249269
98692.253258238415583
98692.276593219503411
98692.305928683024831
98692.341692883172072
98692.382765078989905
98692.426734863591264
98692.47080800391268
98692.512918512831675
98692.55246824058122
98692.590273106616223
98692.62784490219201
98692.666285631421488
98692.705455904317205
98692.743863176932791
98692.779396758400253
98692.810429222387029
98692.836801067736815
98692.860106544423616
98692.883325162139954
98692.909902135274024
98692.942604742929689
98692.98268700936751
98693.029674323130166
98693.081706085518817
98693.136266215573414
98693.191017479388393
98693.244466553631355
98693.296178959353711
98693.346622185956221
98693.396685722051188
98693.447132272223826
98693.498285888927057
98693.550053707571351
98693.602097040682565
98693.654043380651274
98693.705639554304071
98693.756848902688944
98693.807773109569098
98693.858491735401913
98693.90879898093408
98693.958019192199572
98694.005163693102077
98694.049176961081685
98694.089224872615887
98694.125006674250471
98694.156945174865541
98694.1861994604551
98694.214473241649102
98694.243627737538191
98694.275296610663645
98694.310537856115843
98694.349702656429145
98694.392523482980323
98694.438451955720666
98694.486926646321081
98694.537565573162283
98694.590243525250116
98694.645172650823952
98694.702876598152216
98694.764057000822504
98694.829450848177657
98694.899589184686192
98694.974592063605087
98695.05413162781042
98695.137496629089583
98695.223643692166661
98695.311325064045377
98695.399347636048333
98695.486795881399303
98695.573176766105462
98695.658449086084147
98695.742935641435906
98695.827147861753474
98695.911603317144909
98695.996775440304191
98696.083151481623645
98696.171258668327937
98696.261745079478715
98696.355308713711565
98696.452541606806335
98696.553757488974952
98696.658813647110946
98696.767061418984667
98696.87742453624378
98696.988643912249245
98697.099689793103607
98697.21002414348186
98697.319739092083182
98697.429444376088213
98697.540122910766513
98697.652866665215697
98697.768538755059126
98697.88758052198682
98698.009948671096936
98698.135246326899505
98698.262996999168536
98698.39277473083348
98698.524244923275546
98698.657096923561767
98698.790920816012658
98698.925094910184271
98699.058797750883969
98699.191134401509771
98699.321388855227269
98699.449261646630475
98699.574974675109843
98699.699280977321905
98699.82339414973103
98699.948788577574305
98700.07688404378132
98700.208698903923505
98700.3444717083039
98700.483572402139544
98700.624705922760768
98700.76626335491892
98700.906652314166422
98701.044703752006171
98701.180002318214974
98701.313034239938133
98701.445055811636848
98701.577800818151445
98701.713141849875683
98701.852813009914826
98701.998208671851899
98702.150264802447055
98702.309474031542777
98702.476102001441177
98702.650416935663088
98702.832605993331526
98703.022728256764822
98703.220704506427865
98703.426306821915205
98703.639164415420964
98703.85878354164015
98704.084630404482596
98704.316286349101574
98704.553549499178189
98704.796428928879322
98705.045104966135114
98705.299817732520751
98705.560782229993492
98705.828189310923335
98706.102171830265434
98706.382840457721613
98706.670449469893356
98706.965604259326938
98707.269337359757628
98707.583046506042592
98707.908341748712701
98708.24678200337803
98708.599660289110034
98708.967865019192686
98709.351842739401036
98709.751735418802127
98710.167601042048773
98710.599629416276002
98711.04836577437527
98711.514756595701328
98712.000115088929306
98712.506038364532287
98713.034184114221716
98713.586113697660039
98730.317609730351251
98731.074134375565336
98730.727708015881944
98730.506917299615452
98730.438911882243701
98730.339318051701412
98730.074331299460027
98729.721214767749188
98729.390645083229174