/*--------------------------------*- C++ -*----------------------------------*\
  =========                 |
  \\      /  F ield         | OpenFOAM: The Open Source CFD Toolbox
   \\    /   O peration     | Website:  https://openfoam.org
    \\  /    A nd           | Version:  12
     \\/     M anipulation  |
\*---------------------------------------------------------------------------*/
FoamFile
{
    format      ascii;
    class       volScalarField;
    location    "0.00517";
    object      rho_0;
}
// * * * * * * * * * * * * * * * * * * * * * * * * * * * * * * * * * * * * * //

dimensions      [1 -3 0 0 0 0 0];

internalField   nonuniform List<scalar> 
75962
(
1.1444694817633469519
1.1435261776851661786
1.1427260014207476502
1.1431198219273888128
1.1436125836336512585
1.1442589726745691081
1.1446506514177450242
1.1444859665851372377
1.1441814111371984009
1.1442434812385047227
1.1444588620160995873
1.1440277261057478775
1.1431097440167672374
1.1423977546212591427
1.1424300417963513254
1.1430404739652639812
1.1430665137334055093
1.1420324556658647541
1.1407660137852015936
1.140135587678881679
1.1401368271597744908
1.1403701955425029624
1.1406444401428392776
1.140957183915198847
1.1411841126368704735
1.141223291828886488
1.1411867739958359014
1.1411163451392436485
1.1409015643859969913
1.1405581920351688385
1.1402905162656540305
1.1402732024988877502
1.1404119512914203671
1.1404549314356902112
1.1402665243459746414
1.1399710721297870997
1.1398805441450559073
1.1401557604312213545
1.1406099179815614164
1.1410115168562988686
1.1411731756850813646
1.1409953816286857453
1.1405964197574112173
1.1402244891229980084
1.1399849198698077668
1.1398463840100911959
1.1398747386743057763
1.1400630905326119002
1.1402066470434040202
1.1400572821675898361
1.1395989544215812117
1.1390429586521624294
1.1386857635676765899
1.1387556472754385428
1.1392596220295012621
1.139893233904743397
1.1402466099290977652
1.1401463046827082781
1.1398188671658078253
1.139623498520816014
1.1395930591172764856
1.1395349839812460857
1.1394068165243105284
1.1393167564661679236
1.1392508385513364644
1.1390850248809496481
1.1387994812953443624
1.1385493280219105561
1.1384462562708104194
1.1383994727512711798
1.1383062628464413191
1.1381691208143647209
1.1380800555727130785
1.1380563342541949456
1.1381255307531077392
1.1383355210335546204
1.1387252848133901928
1.1391581345413002158
1.1394172640872450852
1.1392813107255945759
1.1388142567211252398
1.1383122191335566242
1.1380337125926833775
1.138008929744808384
1.138054329550459487
1.1380156080690626563
1.1379348337998522744
1.1380333995814764236
1.1384587002250832199
1.1391084855335675829
1.1396602662769739212
1.1398376143789512582
1.1396064767750366808
1.1391525630072900643
1.1386694385604365642
1.1382552732977040399
1.1379411702977870746
1.1377651188665398596
1.1377704812869828821
1.1379398492261076914
1.1382149900301705703
1.1385124177492709219
1.1387957050660133529
1.1390272102526224351
1.1391449054019697762
1.1390589160389226198
1.1387397431508436974
1.1382652846068490593
1.1378023247194215539
1.1374831971705288147
1.1373891131762690065
1.1375487964590624834
1.1379877393068680291
1.1387001147322053374
1.1395754761512038034
1.1404401225120259777
1.1411544703824239022
1.1417060127029519112
1.1421914622426181385
1.1427055582481611129
1.1432472943212932392
1.1437299437479011566
1.1440819905453365468
1.1443158084595037582
1.1444988576191845731
1.1447011425600039924
1.1449272204102802775
1.1451323672266560116
1.1452591062000097022
1.1452932055323368221
1.1452874638702794652
1.1453263600202341355
1.1454584468023527588
1.1456540302527715713
1.1458276371618298928
1.1459163451284244406
1.1459506412074922377
1.1460209737761497539
1.1462028157625139269
1.14647835090577499
1.1467515757599240356
1.1469289227946493082
1.1469833739690140639
1.1469552373809577261
1.1469068359142993163
1.1468783063614329532
1.1468818246663430305
1.1469187890824839027
1.146985584590135554
1.1470684359405813879
1.1471486913388804219
1.1472088271272466997
1.1472412675733045795
1.147254854228819676
1.1472747660713411566
1.1473268883628036097
1.1474142415113368632
1.1475144323731005791
1.1476006406505983026
1.1476633793019266339
1.1477275583582746687
1.147824413789478637
1.1479605935252639171
1.1481138827657613177
1.1482463493361818596
1.1483309110071404646
1.1483699876532298401
1.1483907156708845765
1.1484211283875043197
1.1484737823329218553
1.1485368769442845238
1.1485966094461215192
1.1486551567219021042
1.1487300625764058637
1.14884252112714913
1.1489947064367906915
1.1491625208541551562
1.1493053809717677094
1.1493875717383561508
1.1493956517681422902
1.149345870886931964
1.1492725204021996266
1.1492134747860398569
1.1491964492120763097
1.1492298142450736442
1.149292882042837638
1.149336561515423405
1.1493045335744178637
1.146507669495313575
1.1465377770578941696
1.1465511946126256682
1.14655760188645095
1.1465669464944563405
1.1465782326012130543
1.1465829211386289188
1.1465754753549135536
1.14656134379491359
1.1465531634683885365
1.1465592682626775112
1.1465783735165071544
1.1466055965667358851
1.1466434537159502227
1.1467047658392475196
1.14680075243877444
1.14692146394009864
1.1470278575401575694
1.1470676296603063982
1.1470069188939959748
1.1468557977094235856
1.1466681550912052323
1.1465141799566664904
1.1464448262578641469
1.1464684929104755895
1.146551728590564645
1.1466434859111596101
1.1467085873004139174
1.1467481752486881064
1.1467919960296482085
1.1468740994495534302
1.1470088782606553401
1.1471820056202151061
1.1473600222316295838
1.1475097365419602014
1.1476145682252949509
1.1476795884090968958
1.1477245857765445702
1.1477703611467000577
1.1478285591645043251
1.1478972334855686022
1.1479652982085555291
1.1480187550366651728
1.1480506802112839804
1.1480612550307900399
1.1480589352817942572
1.1480568485335458373
1.1480682993398800829
1.1481036137796676311
1.148171121822618046
1.1482767141322980375
1.1484226717210785917
1.1486075044040964244
1.1488266974200911363
1.1490727663875164311
1.1493343051471169858
1.1495928136682700416
1.1498222311314523214
1.149993009130222843
1.1500838313082208941
1.1500882634838103247
1.1500227112130452234
1.1499200041094788105
1.1498150429596394329
1.1497320738309697585
1.1496775710313194008
1.1496424008416821216
1.1496091425556982379
1.1495628231485044424
1.1494989476652970328
1.1494244142238101425
1.1493522052766880215
1.1492953616399030903
1.1492609625795253692
1.1492466066196671548
1.1492408791281092384
1.1492282824214758996
1.149196617257509212
1.149143595890981473
1.1490799386677388316
1.1490272587426315631
1.1490118585793940298
1.1490543421774255251
1.1491594777055740284
1.1493102692452705771
1.1494748421005014372
1.1496180983111097262
1.1497140991766181539
1.1497540340788807711
1.1497460482597536835
1.1497059889324552362
1.1496455537470597896
1.1495667585832065605
1.1494627486767314828
1.1493274810065252645
1.14916411062281143
1.1489879370638775846
1.1488219392473331126
1.1486866073443384728
1.1485913273800472112
1.1485301766093156672
1.1484870541261005261
1.1484452307407588822
1.1483970138904511238
1.1483469589524546439
1.1483080139396577568
1.1482919699990254969
1.1483003922074559444
1.1483205014359720852
1.1483274868763588827
1.1482932780546233342
1.1481972193090075329
1.1480343270811070866
1.1478179039459139865
1.1475744114071384505
1.1473345194419330983
1.1471239187852706465
1.146957182838071132
1.1468367078397858627
1.1467549674599009091
1.1466989606172324212
1.1466549198011615207
1.1466121187158364592
1.1465647452108163051
1.1465115362195623661
1.146454479189280562
1.1463973348196905278
1.1463448175704877841
1.1463024784032704861
1.146275914344965674
1.146270293125988049
1.1462890813592403472
1.146332927139063429
1.1463990546222166955
1.1464800407342425892
1.1465644114951174526
1.1466388323487102241
1.1466912826543078641
1.1467131213857317817
1.1467015689425981151
1.1466589888378886375
1.1465917391326247987
1.146510043502750209
1.1464272889819004941
1.1463575657750837422
1.1463133709403154903
1.1463028718991701282
1.1463266149723234655
1.1463768898339226077
1.1464398834138842531
1.1464990747934884485
1.1465387075306285869
1.1465475385617107662
1.1465218651928281712
1.1464660836118309994
1.1463918439912579306
1.1463154625668681152
1.1462537172905526983
1.1462198605057880574
1.1462207901806678034
1.1462562353031382489
1.1463205176200939039
1.1464030495045760549
1.1464915034152238782
1.1465746352565053812
1.1466438602176487471
1.1466931576799679338
1.1467184817452742429
1.1467171418863197907
1.1466873922642251138
1.1466295527447283309
1.1465463767104113746
1.1464445712274553557
1.1463351252191391616
1.1462306233324019988
1.1461415664074359189
1.146074064182691199
1.1460293909831895665
1.1460034259967908365
1.1459871586083811845
1.1459697107994262222
1.1459431593218760703
1.1459053096820899231
1.1458596985286075842
1.1458139086267238316
1.145776818183571466
1.1457549788419665315
1.145750381251037453
1.1457606332895655665
1.1457810514799613433
1.1458078805044518145
1.1458405519985332965
1.1458815173886134353
1.1459342822927309768
1.1460004188384422807
1.1460767877364952394
1.146153910511622076
1.1462172343751113601
1.1462521596543755464
1.1462489047974715461
1.1462065691588414484
1.146134231211544563
1.1460492919897042885
1.1459740229342383344
1.1459310643477733649
1.1459381337898133513
1.1460032812437843663
1.1461231671720764069
1.1462839399724868983
1.1464643564457528413
1.1466402344308939121
1.1467898947936563392
1.1468994265005270083
1.1469645017732028602
1.1469886607128505496
1.1469808550061295627
1.1469523744095708739
1.146912701406028523
1.146867354455803012
1.1468177440817874935
1.1467630599997873375
1.1467033238073440771
1.1466416167786583902
1.1465839020323231878
1.1465375569253950516
1.1465108023720409491
1.1465112579685705629
1.1465429308222858662
1.1466040721206713915
1.1466879646561589645
1.1467844473179200637
1.1468824203393346295
1.1469726320318269774
1.1470503387719972466
1.1471154835317427523
1.1471714717532786043
1.1472224163433768496
1.1472709097077931073
1.1473174033484514478
1.1473598652463061764
1.1473951918944800266
1.1474192123788482522
1.147430192588029696
1.1474308666093351317
1.147427677759638609
1.1474286896725065521
1.1474407142356601863
1.1474679343063922676
1.1475102575767825996
1.1475622807839742645
1.1476143211651657072
1.1476552867426248472
1.1476760216217998245
1.1476714308436053447
1.1462663170450095862
1.1428680892077287545
1.1417680005101016327
1.1416658465684412782
1.1422748564715146102
1.1442187149385050215
1.1453777694095332862
1.1449200366121980998
1.1438626740414792327
1.1435885809993120432
1.1441593115136505787
1.1440192371916471092
1.1431267373011257948
1.1426700408783840857
1.1427855463363920663
1.1428034006055296512
1.1423039899116333995
1.1414985902203877988
1.1407974933156321828
1.1404685887492052032
1.140490020851485653
1.1405973740946917516
1.1407353370259338821
1.140887708642066789
1.1410373293420841279
1.1410970175067489674
1.1410557323269088226
1.1409166941362629544
1.1406626898542771009
1.1403715312164774964
1.1402262306626329558
1.1404058376159591504
1.140802696741350486
1.1410007480035424532
1.1407358782646050965
1.1402170628829060295
1.1400193263418725298
1.1402418917434768986
1.1406110580756119166
1.1408774346223338192
1.1409796570584596065
1.1409332418395137232
1.1407548931757314215
1.1405073579013118579
1.1402322273605944858
1.1400482075342186494
1.1401319131100600135
1.1404867803704097362
1.1407747107273558118
1.1405772381605614463
1.1399195980837886211
1.1392935916138942076
1.1390792917036647314
1.1392982379333544962
1.1397480454880322132
1.1401941393078811604
1.1403948954302367547
1.1402592217133615815
1.1399568524203891329
1.1397965499528355249
1.1397749782803712204
1.1397423138905891093
1.1396595914918468129
1.1396056947547650307
1.1395726431837589487
1.1394222292378723971
1.1391382084827104126
1.1388311099621688527
1.1386013688477558681
1.1384291979632252811
1.1383199969486592629
1.1383303979591019583
1.1384337463637674848
1.1385379922289351473
1.1386085827933596359
1.1387230075749876779
1.1389913033323004754
1.1393998505938645049
1.1397264818808727771
1.1397244108029496168
1.1393588774831591159
1.138816806687720895
1.138380396549738105
1.1381912658325861187
1.138157891629475893
1.1381075459138771944
1.1380092057093000868
1.138023039059347763
1.1383170380634752838
1.1388528052371476029
1.1393623402370336439
1.1395871040666798457
1.1394661468347748734
1.139123142806135025
1.1387034645683182799
1.1383091375966898351
1.1380139543160945337
1.1378739654388998481
1.1379122179378107216
1.1380733729121985665
1.1382821806225136285
1.1384970389588526807
1.1387150788478028751
1.138926207582161565
1.1390684295618411781
1.1390275551186859193
1.1387253909189103407
1.1382025593167863775
1.1376275253963596956
1.1371880251707489062
1.1370016813749266316
1.1371115653304739723
1.1375272608584008349
1.1382331810385757365
1.1391322040605815769
1.1400509651061419003
1.1408370149374185143
1.1414501649348229861
1.1419691707412213955
1.1424859836989027517
1.1430129980609351481
1.1434902616053350677
1.1438641049777902303
1.1441406550922152974
1.1443752866921184097
1.1446117084008129439
1.1448493597587368065
1.14504522942534126
1.1451496530844531563
1.1451535502294549751
1.1451138768570685578
1.1451233389508488347
1.1452435227994792744
1.1454576524250619229
1.1456805614057066212
1.1458325439721279704
1.1459020757218798536
1.1459452699904322248
1.1460186288775824348
1.14612070491518514
1.1462085741801602001
1.1462517363717721341
1.1462636436755977432
1.1462851302202186066
1.1463440427774052033
1.1464443524215290893
1.146572567228322681
1.1467068503074873131
1.1468253239020447243
1.1469036958070260024
1.1469274935123836556
1.146906585455103933
1.1468717441868323537
1.146855410311477419
1.1468805000148127871
1.1469534219295598465
1.1470628522752788214
1.1471936393218218342
1.1473276373335741241
1.1474663900177457521
1.1476258427369911974
1.1478132011687773861
1.1480083127411162547
1.1481619442815833576
1.1482200457407174543
1.1481671628823579834
1.1480505520836159494
1.1479520437340009487
1.1479425093033970295
1.1480416606877150709
1.1482119910034738197
1.1483905604935211731
1.1485383106265421027
1.1486582942703631449
1.1487792189502752382
1.1489134320205129924
1.149040423270399236
1.1491192008224164756
1.1491219578060885009
1.1490586896302834585
1.148972218422938063
1.1489112332112503267
1.1489081990700829028
1.1489718549529486236
1.1490856317297923894
1.1492090622470523265
1.1492856664041999348
1.1492615935374201896
1.1491169989867795476
1.146434972068226088
1.1464895380982094153
1.1465375200181897597
1.1465634269898794528
1.1465721102647863372
1.1465729985106158928
1.1465680667761852796
1.1465549994104320408
1.1465352007699145531
1.1465168962207783476
1.1465108883762868963
1.1465212664721322611
1.1465424743338812341
1.1465674043519216152
1.1465985935982589972
1.1466498732942531635
1.1467333942058377527
1.1468408272207561982
1.1469373999135485942
1.1469771920342783922
1.1469318528142993241
1.1468122919602814491
1.146667948058800679
1.1465613758137720435
1.1465336721821388632
1.1465832814290308761
1.1466720391088827125
1.1467519901746978661
1.1467956226355939808
1.1468115224481125747
1.146836226824405669
1.1469092271244856196
1.1470475940291584571
1.1472352991059173721
1.1474314215921499471
1.1475909504518666537
1.1476874779530703563
1.1477237730619203049
1.1477274435188364876
1.1477338962220997587
1.1477711238307237718
1.1478475825781098152
1.147953806079371919
1.1480675029575584389
1.1481660663487180951
1.1482372146275519054
1.1482800307457952105
1.1483033654976548821
1.148321847583558375
1.1483506288401181816
1.1484030325643419523
1.1484899606743270706
1.1486187972325538897
1.1487926613858447933
1.1490088067113954917
1.149257445601648886
1.1495213603840115368
1.1497754931641857024
1.1499896898921118105
1.1501362125751639631
1.150198430817656936
1.1501771532693763067
1.1500932648767914213
1.1499788303718032623
1.1498657328572587932
1.1497744534896177093
1.1497080399927184224
1.1496552727235738178
1.14959975116655988
1.1495302054913187906
1.1494456915404160924
1.149355341864363389
1.1492732673552872313
1.1492126648804614764
1.1491804660436957253
1.1491738861978793018
1.1491812283964091268
1.1491864034028635988
1.1491762038974751015
1.1491464187363080729
1.149105316510348862
1.1490719532014690429
1.1490703103951840358
1.149118738375159543
1.1492207762949766536
1.1493605695008057843
1.1495096156778399354
1.149636041743349768
1.1497179701307118638
1.1497492567231666349
1.1497370882362727418
1.1496926477142048739
1.1496225749198372146
1.1495246465242892064
1.1493925369582422835
1.149224586205306764
1.1490314181019773976
1.1488351935328786624
1.1486621312358944458
1.1485314101915520268
1.1484455016968972974
1.1483903630102396676
1.1483439360423366438
1.1482891850974630277
1.1482231231375847891
1.148157451054377276
1.1481110332756352399
1.1480975032734186403
1.148114778156783089
1.1481426508778291851
1.148149336726342673
1.1481035995102466529
1.1479869281451910989
1.1478005076924497896
1.1475648136436666924
1.1473125668250192533
1.1470780677642500311
1.1468870401902182543
1.1467507097484141987
1.1466657299931266589
1.1466181207464376524
1.1465898302692945077
1.1465646364211348196
1.1465319105782028064
1.1464882915966772003
1.1464356232296950555
1.1463783373095493001
1.146321136500700888
1.1462678690759571243
1.1462216005270402519
1.1461846090380289898
1.1461593472139559591
1.146148781732263533
1.146156639366740615
1.1461857641862887025
1.1462361246418977245
1.1463018014946024792
1.1463711236587050823
1.1464301053060024227
1.1464661901139761024
1.1464720002203723226
1.1464471476657558391
1.1463975605380998246
1.1463340343720564984
1.1462699082855793975
1.1462185428808873144
1.1461891716484520209
1.1461856130031182754
1.1462050243411274764
1.1462386961096777682
1.1462740776936202192
1.1462990221346114339
1.1463039648574546714
1.1462836450447073666
1.1462389616869406161
1.1461772630772000259
1.146110958272161584
1.1460547715419369119
1.1460226652014222637
1.1460243438235464541
1.1460629118290099893
1.1461340469882148607
1.1462279825683003853
1.146332240109056988
1.1464337059776630312
1.1465217251819470601
1.1465894285377684625
1.146633503315938718
1.1466524131948145904
1.1466451903370822318
1.1466112328672581899
1.1465512621150342198
1.1464687833685349716
1.1463709452224233321
1.1462689695793486511
1.1461767123817834246
1.1461062025177457535
1.146063558882088218
1.1460476714330092296
1.1460516213666247509
1.1460643589809593745
1.1460734636821421351
1.1460695460955543368
1.1460494104903349299
1.1460162797897042175
1.1459776808882329302
1.1459417670103884124
1.1459148897884714469
1.1458991782825769246
1.145892763734643216
1.1458916427339735922
1.1458932404335901989
1.1458988339800570966
1.1459133903329858928
1.1459433570370138877
1.14599299597386306
1.1460614943500309071
1.1461416870203295915
1.1462204318438620199
1.1462818500074489769
1.1463129791401585056
1.1463086673932691983
1.1462736377079252303
1.1462221486333890041
1.1461741008233490291
1.146150046019999591
1.1461670452000241038
1.1462343646604511438
1.1463505743879185417
1.146503688877114735
1.1466736448994598874
1.1468374284522582229
1.1469744243087984792
1.1470705970191330536
1.1471213758857332632
1.1471307385670435064
1.1471085200680175564
1.1470669224673093467
1.1470168174608033063
1.1469649310585590118
1.1469135499713734028
1.1468627096015286959
1.1468123506735807826
1.1467639735181405225
1.1467221390428796735
1.1466931526460080182
1.146682810721588508
1.1466946782253528703
1.1467292925709979823
1.146784030111675623
1.1468542459858210858
1.1469347045534039609
1.1470205255883845208
1.1471079907875592063
1.1471953356055475393
1.1472825409523861317
1.1473706873687359309
1.1474594515341025591
1.1475453089097993331
1.1476219519143324721
1.1476828250664981024
1.1477230671322151689
1.1477412685941301707
1.1477399204818372613
1.1477256638839246072
1.1477078601384373968
1.1476963490800009549
1.1476985063661917508
1.1477166767005972936
1.1477473601390124625
1.1477830884955662061
1.1478144974537098921
1.1478319245512373925
1.1478284123030528807
1.1478018827036073901
1.1443583967649557653
1.1427801474906131851
1.1417583767408800988
1.1427129733844312298
1.1431123242875274038
1.1444129502688589195
1.1454901067336391574
1.1449776933410982238
1.1433962535746642342
1.1426955286634588038
1.1434653350437193886
1.143634196874359521
1.1429367739438422991
1.1428248425739966354
1.1430427894286312451
1.1425044521642548911
1.1415845049479633744
1.1410448910377213316
1.1407594898367341418
1.1405187643821073085
1.1405462480812742498
1.1408419784588417212
1.1411116443181656965
1.1411551522058278607
1.1410539485099606694
1.1409127931644842402
1.1408104918600119326
1.1407047299170423038
1.1405204144808727129
1.1403547121357513472
1.140450302133026117
1.1408849316897786697
1.1413349547878690604
1.1413043252714365483
1.1407468390673303205
1.1401690759249787366
1.1400371763904790789
1.140327388785446594
1.1407701403475101198
1.1410944436598380314
1.1412121949229114826
1.1411721310715052802
1.1410464109643756458
1.1408222604756181884
1.1405226068713507637
1.1403436874847383553
1.1405224567569764993
1.1409861418257272181
1.1412622389803976919
1.1409419943143908061
1.1402263550227886846
1.139708028340713053
1.1396758412181744458
1.1399593491670751977
1.1402898187210477321
1.1405282087485320019
1.1405770174483491619
1.1403927395327462246
1.1401432988923021483
1.1400196430935378711
1.1400408215282749058
1.1400675548770780043
1.1400057278446944498
1.1398923293458738115
1.1397307384999730839
1.1394618710467629974
1.1391289983560022314
1.1388378561385839038
1.1386402052004298557
1.1385610667849201949
1.1386227059534594908
1.1388238015666178882
1.1390263906921962445
1.139096717967080119
1.139080076744626302
1.1391559056479754197
1.1394585063520243917
1.1399335647797501636
1.1402844888658829614
1.1402544261222522515
1.1397796490108254019
1.1390704319851219228
1.1384498122414667964
1.138140780649139483
1.1381047947056586178
1.1381274433267067892
1.1380804902916310528
1.1380424780931022166
1.1382060178788324656
1.1386066570003050558
1.1390784728815801508
1.1393877960940301808
1.1394134756473659476
1.139196793851485312
1.1388268058852877296
1.1384347212402221583
1.1381315604773147854
1.1379796344108950024
1.1379759182728126365
1.1380677899290969624
1.1382114835081169613
1.1384094493891647737
1.1386422323853095939
1.1388719111088547731
1.1390111959397088981
1.1389749548845322646
1.1386860218187371263
1.1381724703788163033
1.1375868165377485131
1.1371347962407933885
1.1369403492485834484
1.1370464519854834862
1.1374296923914428703
1.138055948223752889
1.1388743459993968532
1.139748527121056787
1.1405423656641624497
1.1412090660303879641
1.1417918568678528946
1.1423569041374979083
1.1429224016604542236
1.1434501222025954537
1.1438957777868703491
1.1442491975338051624
1.1445311628138841176
1.1447572773468128737
1.1449248529088000836
1.1450133721936270881
1.1450140098121490695
1.1449481620746626565
1.1448769205310516117
1.1448805473083347728
1.1450095351708746705
1.1452439709123147793
1.1455061557592012278
1.14571082494844112
1.1458217584890533214
1.1458620662917249344
1.1458681270141541919
1.1458526776165640637
1.145810630595262225
1.1457525890779669542
1.1457149239188855194
1.1457370916977127617
1.1458361533166290247
1.1459989519304747407
1.1461952483449588946
1.146386267966791106
1.1465245552497855819
1.1465746891133681284
1.1465359902161023076
1.1464529370366540739
1.1463886840534862621
1.1463864914149444196
1.1464532286429831576
1.1465708912242216222
1.1467135385420705873
1.1468700146778729732
1.147045115081881006
1.1472560290690871909
1.1475065002462758734
1.1477731920479643524
1.1480013734721079555
1.1481140266936742389
1.1480596417188277947
1.1478558340967075502
1.1475948397280879565
1.147405711238936199
1.1473844737761418333
1.1475457414781933263
1.1478247230982863147
1.1481198931760501214
1.1483579027107451154
1.1485290420931499877
1.1486597532888775941
1.1487649438748701591
1.1488267312068469739
1.1488155187215041142
1.1487307338701255865
1.1486147091797043185
1.148526935408917371
1.1485183870702944109
1.1486044475682841703
1.1487627951498458057
1.1489474615792718559
1.1491051965508671806
1.1491862518726048137
1.1491553059255850133
1.149009724811567601
1.1464508522648140243
1.1464921496524751454
1.1465423861276882178
1.1465809081836135785
1.1465982428660037584
1.1465934690834671539
1.146568341605884056
1.1465284133089383989
1.1464853609953999936
1.1464549291922052632
1.146449342723701692
1.146468791496632722
1.1465023975617703034
1.1465389451851866198
1.1465778357878064764
1.1466301815265729225
1.1467061988395088612
1.1467992544405356536
1.1468820516722046943
1.1469192402224965832
1.1468903103580165848
1.146806803614735859
1.1467092075951714758
1.146646546178869297
1.1466494148645363094
1.146712528885567961
1.146800710816578972
1.1468735639746399091
1.1469103136336629145
1.1469217690627500073
1.1469436546177813607
1.1470145887131717455
1.1471516254376266097
1.1473377450709303371
1.1475292696250580793
1.1476771555862712582
1.1477518521110043892
1.1477568788345229311
1.1477246855897662581
1.1477026612313177001
1.1477307513754884116
1.1478272375813192152
1.1479797479674267446
1.1481575226838576231
1.1483238828941642051
1.1484544855286216158
1.1485426770208495562
1.1485947367802606944
1.1486258244631082359
1.1486531111066833333
1.1486911791782741243
1.1487520294153481526
1.1488462252344753267
1.1489814583404194259
1.1491595141642927391
1.1493734389118781536
1.1496048786052306401
1.1498251990409285028
1.1500022583146554123
1.1501108742721384282
1.1501413566665374955
1.1501031218232693476
1.1500195445186427445
1.1499190179453255833
1.1498250951567356992
1.1497483782997794943
1.1496850272968985873
1.149622358229816621
1.1495481374504021854
1.1494574535627408718
1.1493550201969253699
1.1492529159972961761
1.1491659204889763668
1.1491063608214642233
1.149079910216364464
1.1490831511562626943
1.1491047170468906558
1.149128607030004412
1.1491409342980791752
1.1491354728683484954
1.1491176750422895658
1.1491033215895678499
1.1491122386146153111
1.149159284844591733
1.1492470089908310982
1.1493627637069607772
1.1494833351492781404
1.1495842041092116936
1.1496487244212967305
1.1496723857116926126
1.1496601031383348879
1.1496179738135350323
1.1495461730901781472
1.1494382961158449152
1.1492874840494793354
1.1490960037732969035
1.148880384046473413
1.1486687171415856934
1.1484896851836492448
1.1483606022007168956
1.1482796149686551601
1.1482272354688589644
1.1481780355565933682
1.1481151788115824264
1.1480388074935432563
1.1479644634043557616
1.1479131717864901052
1.1478981711514437691
1.1479141501500236267
1.1479364728194789702
1.1479302899783232483
1.1478648588697357713
1.147726154751819605
1.1475221080968496246
1.1472796983185986619
1.1470360900591474174
1.1468258024325450606
1.1466709422214742542
1.1465764770524229377
1.1465313667661445329
1.146514907933750882
1.1465052006581217814
1.1464864030715917753
1.1464519568901885282
1.1464041461058733784
1.1463501476846988947
1.1462967918854767291
1.1462475503710620739
1.1462018920674419409
1.1461570325570102913
1.1461110721493694697
1.1460648012605443302
1.1460225963277124173
1.145992361225271372
1.1459823342534800616
1.1459986939019612961
1.1460410862517365072
1.1461012957698903936
1.1461650964898211225
1.1462174848432327146
1.1462462006090512467
1.1462461823307972253
1.1462202139486417085
1.1461773622273563333
1.1461297382912045695
1.1460897184269140947
1.1460652993622924001
1.1460589601903763413
1.1460680611853339972
1.1460851812224885915
1.1461003432385430401
1.1461037510123746053
1.1460888125397901138
1.1460527674642548845
1.1459979937368729441
1.1459330135899887804
1.1458705647290319263
1.1458254122835327404
1.1458110411261985817
1.1458362849574912357
1.1459026473300417681
1.1460032434573856897
1.1461246751812310674
1.1462508599438596679
1.1463665545051939798
1.1464605798164086981
1.1465270501263562508
1.14656530193590811
1.1465771434763489811
1.1465645537380226848
1.1465291198314937482
1.1464728908758345938
1.1463998967518767014
1.1463168767729969844
1.1462338470800907952
1.1461627574078785408
1.1461147389451151746
1.1460958360031991976
1.1461046706208428692
1.1461333119488257282
1.1461701611921981669
1.1462028561545249961
1.1462212735236507744
1.1462203219448079405
1.1462007785796823889
1.1461680507158356068
1.1461293469076192508
1.1460909878736540435
1.1460565223933958379
1.1460265832920657481
1.1460000217144181711
1.1459760292695058137
1.1459566281335686888
1.1459475565294925392
1.145956123300838847
1.1459887208026444672
1.1460473050974859799
1.1461273255403214844
1.1462187774539975837
1.1463077535588954703
1.1463797361195453561
1.1464249771428949298
1.146441762345296933
1.1464375252200256217
1.1464267312623757089
1.1464264513006781065
1.1464519437544065106
1.1465130577591280403
1.1466110295497899951
1.1467378374843839595
1.1468782182130228264
1.1470131930171250101
1.1471252919873009546
1.1472024961840936452
1.147240621500904334
1.1472434887344828969
1.1472198522343093341
1.1471800235882807506
1.1471337201556566221
1.1470876436058856651
1.147044497123339335
1.1470044660576401707
1.1469673679705134628
1.1469342630496857094
1.146908442495212288
1.1468946803486541608
1.1468972126307912518
1.1469173623589377087
1.1469529045550381774
1.1469996499606287532
1.1470534050784646496
1.1471119026522709206
1.1471758504752389562
1.1472483457927282746
1.1473329967252539063
1.1474318779799121959
1.1475439941818885714
1.1476640996849520882
1.1477826634986270093
1.1478878933222849135
1.1479687478396092271
1.1480183966097414761
1.148036640947748932
1.1480298397341763827
1.1480083059350012498
1.1479834139008699978
1.1479652826528679022
1.1479599419395112303
1.1479675467526773147
1.1479827677465839209
1.1479972269857714462
1.1480019748957501768
1.1479905315518501574
1.1479608686811069163
1.1479148260384977043
1.1478574727880357376
1.1422000725012728672
1.14163588682323347
1.1415393106908382492
1.1425316674821759388
1.1429247863166491772
1.1438572155556430143
1.1449214023342138002
1.1450496876206588404