/*--------------------------------*- C++ -*----------------------------------*\
  =========                 |
  \\      /  F ield         | OpenFOAM: The Open Source CFD Toolbox
   \\    /   O peration     | Website:  https://openfoam.org
    \\  /    A nd           | Version:  12
     \\/     M anipulation  |
\*---------------------------------------------------------------------------*/
FoamFile
{
    format      ascii;
    class       volScalarField;
    location    "0.00517";
    object      T;
}
// * * * * * * * * * * * * * * * * * * * * * * * * * * * * * * * * * * * * * //

dimensions      [0 0 0 1 0 0 0];

internalField   nonuniform List<scalar> 
75962
(
300.40145616446716303
300.59523608996403254
300.40135344463016054
300.24529734711728679
300.20885814465623298
300.25937368791232984
300.24195940444195685
300.14600787876582899
300.15730089610974574
300.38829661711304198
300.70036955723423944
300.83546089505802001
300.74901750269560807
300.58537600616608643
300.50712464532438162
300.56663034973217918
300.66201805858560192
300.71991453587378373
300.75998310319073425
300.78030694420533564
300.71587785166411777
300.54301650178689442
300.33893943127048942
300.21747989447084137
300.22767766300546555
300.34499073993066531
300.51471787307445993
300.6621047138138465
300.71639478775881571
300.66172766836155006
300.54795983316358843
300.4545671853148292
300.43800137659513894
300.51037116354069667
300.640693036547475
300.77064789578531645
300.83994688603075929
300.80382923761652592
300.65307377178373827
300.45064225040727024
300.29875735015411919
300.27059433010788325
300.3687970264529099
300.52098414335034704
300.61420272162996525
300.57490709080849456
300.43746870289487561
300.30814906898120853
300.28374762316076385
300.39064504811585721
300.57555580980806553
300.73370920494272696
300.77438706566840665
300.68199046850156719
300.51995880748881973
300.37435987568881046
300.30054757567648949
300.30541089693912227
300.3637378530951878
300.43509312448196624
300.46922773872455537
300.44447131326239742
300.39702630114385329
300.3859388028486137
300.43043132068657997
300.49998515425431833
300.55247414062756661
300.56970484656437748
300.55360650434073477
300.50977441056119233
300.45340682586299863
300.40336427171854439
300.36960080297103559
300.33716779080873494
300.29068802631178414
300.23293834017334802
300.18816760338097538
300.17588785154754305
300.20406336256786517
300.26151566327592946
300.34428097043030448
300.45640702014134149
300.59126835402724964
300.72012435666590591
300.79896031403660572
300.796617777141023
300.71325513008582675
300.57931326566637154
300.42961276511545066
300.28556687180713425
300.15499028860739372
300.05114038253884701
300.00077280346056341
300.03071336939723324
300.14149760989374727
300.30163404353152146
300.46273167605835397
300.5819182242148031
300.63385295456146196
300.6104121256075814
300.52324916891882367
300.39969171748384724
300.2804227710795999
300.20252991006333332
300.18693031444865937
300.23228356768743197
300.32388302306981132
300.44271373513510071
300.5702567585612428
300.68294242469357869
300.75740844063693658
300.77585439061351735
300.73384019119686172
300.6369056973824172
300.48881844063248536
300.29134165277855573
300.05047467408849116
299.78378462046941877
299.51753164356534853
299.27466696290059645
299.06483248264026997
298.88529731989780203
298.73160201115189238
298.60508152084042877
298.51026825697454115
298.45005503741958819
298.41911361538865322
298.40615256246115905
298.3983605120532161
298.38811720467703026
298.37652942590602834
298.37052438484460026
298.37561335650923411
298.39032478404550375
298.40699199820284093
298.41889516115804781
298.42765462744256411
298.44050749521369426
298.46338606710440899
298.49325511637613317
298.51980901309212868
298.53397263445111776
298.53450773953852604
298.52772715749955523
298.52201754733937378
298.52246550713908846
298.52985876668327592
298.54275412236404463
298.55874307291452396
298.57455247106230445
298.58704419987589063
298.59404569958610409
298.59522594788666083
298.59259709827853158
298.59031517021077207
298.59276433806360274
298.60167734860442579
298.6154148937078503
298.63091019390367364
298.6460378033934262
298.66190586230891313
298.68046951466146766
298.70155309221934203
298.72242619317353274
298.73910090048582333
298.74895487163507823
298.75269465661182267
298.75385523607712912
298.75623875893109016
298.76204123567265469
298.77071146100820442
298.78115262008196851
298.79370881956657513
298.81017588830781051
298.83264783243686225
298.86112887260179605
298.89265651378758548
298.92232679795836248
298.94564300169344051
298.96051589093167422
298.96814206968144845
298.97179507871527449
298.97527564665443833
298.98145838187519985
298.99135929399926681
299.00311801661763411
299.01192854356327189
299.01211250806250064
298.72848058821716677
298.73178946856450011
298.73321452337904702
298.73391687174444087
298.73511665541997218
298.7367472436565663
298.73776361308290461
298.73733969875473804
298.73588184053699024
298.73475031224626264
298.73500478965576121
298.73669063925837008
298.73935494482253716
298.74320591775892808
298.7495286571048041
298.75953117408812432
298.77227802975841087
298.78373944983889032
298.78834126365501334
298.7823013619156427
298.76644252172371807
298.74633914199148421
298.72949943631738279
298.72156896887537414
298.72372241962671069
298.73257279301083145
298.74264167945523241
298.74994676713481567
298.75432051207934592
298.75875598242708975
298.76689398924975194
298.78044759670484609
298.79813449097048306
298.81658250986106395
298.83234237611861772
298.84362768052750425
298.85088455682489439
298.85610450610255384
298.86140330825094225
298.86795409919130861
298.87552174317630715
298.88292521681847802
298.88868942118284622
298.89207306187194035
298.89307582143413811
298.89255829441486867
298.8918975781757581
298.89253449701055843
298.89563824646063495
298.90219289446412176
298.91291826319178426
298.92811342325035184
298.947613895799293
298.97088257982915138
298.99705442065317129
299.02487560086865415
299.05239019233835052
299.07686244358444583
299.09518611080045503
299.10507548832413249
299.1058029980478068
299.09903173496070394
299.08821247808418775
299.0770602410856327
299.06819603504231964
299.06235242666838303
299.05858269310363085
299.05503475452746898
299.05009435103244186
299.0432500011872321
299.03520634869636297
299.02732444849175408
299.02098239761721743
299.01695461566885115
299.01505022231913244
299.01414965217549025
299.01268454221923321
299.00938449828908006
299.003953435815788
298.99741647874230921
298.99195130223171191
298.99030333703342421
298.9946981682028877
299.00577229789007561
299.02183996063808991
299.03956745320920163
299.05517284512723108
299.06576762407064507
299.07027502220620363
299.06948016505702981
299.06509850057290123
299.05849097767628564
299.05000750225252659
299.03901672044207771
299.02488156310090517
299.00787224200428227
298.98951213228923507
298.97216819503137231
298.95799563347731009
298.94800942566308777
298.94161155762498083
298.93709816796217638
298.93266423359364126
298.92744830250137511
298.92191214040349223
298.91745896368007607
298.91543118800825596
298.9161098814886941
298.91825450779140283
298.91929276381529235
298.91622048113572419
298.90674121632537208
298.89017475282349778
298.86778647052716451
298.84229850528987527
298.81696009366368116
298.79456726662436949
298.77677337396556823
298.76392232326105614
298.75524867740398349
298.74934561935071997
298.74468952204762218
298.74008415716633635
298.7348992797686833
298.72903978851365991
298.72279302548525948
298.71664124993947098
298.71113458383808847
298.70685179998804415
298.70432090294508498
298.70399181144597378
298.70613428815721591
298.71075610381598153
298.7175567918775414
298.7258062883708476
298.73438124197969046
298.74196962873060102
298.74737585214853652
298.74971741505640921
298.74867616589409636
298.74443652446734632
298.73758098161380303
298.72910140953405289
298.72035168033534092
298.7128074004648397
298.70781562022892786
298.70630204871770275
298.70841232710608892
298.71342519287838968
298.71995318300628242
298.72628723579003918
298.73075814901625336
298.73212783213898547
298.72991965336956355
298.72449691191178545
298.71698930027724828
298.70904430031714583
298.70241058696757364
298.69851230146161924
298.69815044156985095
298.70139409780921369
298.70773842128085107
298.71614052029070763
298.72533731029517412
298.7341455240385244
298.74163354125187197
298.74712376200210429
298.75014552811143176
298.75037389931901544
298.74758666827403886
298.74177612211656196
298.73319373748580574
298.72251212915125507
298.71087061944848529
298.69960644013133333
298.68986548632136646
298.68235794650269099
298.6772968153355805
298.674322992900386
298.67253810189447449
298.67080712184360891
298.66825614116396537
298.66458141481803068
298.66007179108112268
298.6554606282329587
298.65164654480042827
298.64932218686709575
298.64872672986285806
298.64965719000457511
298.6516671261425131
298.65439327688204685
298.65779204722497298
298.66213338009890776
298.66779425489437472
298.67495007919137606
298.6832767939107498
298.69177460260112866
298.69891071028860097
298.70313642389027109
298.70338033366482478
298.69947907121598973
298.69229922905230978
298.68357474048588074
298.67557029618387787
298.67063131628964356
298.67064842812561665
298.67657013774174857
298.68819996498689306
298.70425241452011278
298.72263503993099221
298.74088408847075016
298.75672215141145216
298.76861158889653325
298.7759662636897815
298.77901140553342429
298.77856314118707814
298.77574499243252149
298.77155630889672011
298.76662968416928834
298.7611887474591299
298.75522519584143311
298.74879185312045138
298.74222651874072199
298.7361330241673727
298.73125693986509077
298.72844814387178758
298.72850992706185025
298.73188046833126919
298.73840589481670804
298.74739529116800441
298.75775557860549725
298.76826139171191699
298.77786767380416677
298.7860052740815604
298.79262696951280986
298.79808890972719837
298.80287366481724121
298.80734233142760559
298.81164553577167453
298.81566364480636366
298.81912294496487448
298.82158717987181262
298.82284193622678004
298.82310671698144233
298.82298198718370941
298.82324914355370993
298.82459524409381402
298.8274741443892708
298.83190568281213473
298.83735772834552336
298.8428486514678184
298.84723356944476791
298.84954224135481127
298.84923130227690535
300.70096965128288957
300.55908764836885894
300.33974581113943714
300.1050438631730799
300.056256153370839
300.24569668013810997
300.31940742368993824
300.19803663679567762
300.12814443875572579
300.32139678617534173
300.67719847877384609
300.84941758642594323
300.75341463912212703
300.58995041674546655
300.5015574637775444
300.50077989295402858
300.56048548663352449
300.66605622179235979
300.78122025779356363
300.83804631054795209
300.77523517243832885
300.58637826314748054
300.36123639764429072
300.21184500913346938
300.20443667135850774
300.32434135578506584
300.50531758042183128
300.66105417072986938
300.72051699985468076
300.66734597828457254
300.54898422180815487
300.45240396424736673
300.44352753885090124
300.52457864138943933
300.65097714202454426
300.76748843521102117
300.83766419801156644
300.80714193466542383
300.65390537729422249
300.43686968107050461
300.27422371314997918
300.25986905845894626
300.39337713647472583
300.58127939750107771
300.69105379122390787
300.64916777768047496
300.49553688790240358
300.34646158543318961
300.30375531652788368
300.39144301972049789
300.56370205939600737
300.7377917542837622
300.82001375444792757
300.76080743335677425
300.59450749652938839
300.41752326524260752
300.31434546155941234
300.31309187185456722
300.38639671407185006
300.48157682079221331
300.53211577273583544
300.511463800774834
300.456461289787228
300.4310263743922178
300.4641047664404141
300.52741305096310498
300.57626525144183915
300.58191147381262454
300.54186424753265783
300.47126388364068816
300.40313913035714677
300.36903938267397507
300.36979651626143095
300.37702263396516855
300.36266502107201859
300.32355317360855906
300.28296630749878204
300.26862828808020822
300.28904272544644982
300.335739552018822
300.40132914419820054
300.48279587369728461
300.57830430612642658
300.67309732339168704
300.73605144664492173
300.73695257503771927
300.66875631203924968
300.55224266415410739
300.41839466367463274
300.28811661399691957
300.16878431083455325
300.0725314311991383
300.02410863634759153
300.0476181533296085
300.14368449172155806
300.2863800032735071
300.43593473794334159
300.55343846169989774
300.61092185875133964
300.59358321701955674
300.50804472722217042
300.3839167536470427
300.26505544127923031
300.19212699443505699
300.18638270618237129
300.24345667264293525
300.34249444162270493
300.46021847339522992
300.57929725423588252
300.6838805929821774
300.75539981355342434
300.77633314050603985
300.73728799903824438
300.63911576984190788
300.48540845256383136
300.27932427493999512
300.02941150852444707
299.755204650563428
299.48497448228323492
299.24294194197608476
299.03892797160193595
298.86970205128113776
298.72867612510350455
298.6132020766651749
298.52479187478360245
298.46359347342234969
298.42517808073108654
298.40078833117343038
298.38089985212224065
298.36031413102693932
298.34141873008377388
298.33173968474949334
298.33719738056862525
298.35662014266438291
298.38176774055239093
298.40406619446247305
298.42096076983949615
298.43622593957536537
298.45352627369987886
298.47073511135715762
298.4819469496402462
298.48345269325199069
298.47735436413120169
298.46982425497139957
298.46637670083919147
298.46996620764849695
298.48094363180354094
298.49760652421201712
298.51703415303416023
298.53511240648964531
298.5482542911952919
298.55548249346662715
298.55856312351869519
298.56028773949088873
298.56340268351266332
298.56974074074418013
298.57978648983902303
298.59348919568469682
298.60976795131529116
298.62868075199668283
298.6511475124801791
298.67695992811792394
298.70316730498666402
298.72397392845380182
298.73322511361220677
298.72902758230441123
298.71644912604205047
298.70471199117804417
298.70231192514108898
298.71250209906349937
298.73228625007021719
298.75552480451824522
298.77814846717870978
298.80028512148180653
298.82466874146206237
298.85225877600538524
298.8804012538021766
298.90407894503528041
298.91959567932866548
298.92732660822167645
298.93132560788455976
298.93647116756164905
298.9460426477048145
298.96091942754878801
298.97947279532627363
298.99772531742178217
299.01007858781696314
299.01111406913963719
298.99878789833684323
298.71985714774803
298.72595412224768552
298.73135333632410493
298.73433692251916227
298.73548184061075972
298.73590655811500483
298.73583487541446857
298.73487779611491533
298.73298973742720364
298.73094649365992836
298.72996442886642399
298.73066665971691691
298.73263700569725643
298.7351624368509988
298.73841963459426552
298.74376797777091497
298.75248532500597776
298.76378275074989688
298.77407600502095875
298.77848672277133346
298.7738581846427337
298.76114990611108624
298.74549962396395131
298.73362632157738972
298.73012913569033344
298.73510542193190531
298.74463484078404463
298.75354378019437718
298.75865422260062587
298.76057947302649609
298.76301233067124485
298.77017315088852456
298.78407665922907199
298.80330568992110329
298.82375328204545895
298.84073716874263482
298.85139798394288846
298.85587125019202404
298.85689381626099248
298.85807255437151753
298.86229145854360922
298.87044693514764049
298.88158530982121874
298.89341636725202989
298.90358687882746835
298.91080716156295694
298.91497890646223823
298.9170365495251076
298.91855254899121519
298.92118443241696468
298.92640989477365565
298.93542922040467147
298.94903007707006282
298.96750083582395519
298.99047949100560118
299.01686089237665556
299.04479764671924613
299.07167018737987974
299.09435386044498273
299.10995779134549366
299.1167280045117991
299.1146964404037476
299.10600044835450717
299.09398797372375611
299.08203302320180228
299.07234581317339916
299.06530689778531951
299.05976445960538967
299.05397956593549225
299.04672603207177417
299.03785460511625161
299.0282741923782055
299.0194327034553794
299.01271071179661476
299.00887403280347598
299.00771231824182905
299.00809988246516014
299.0084240688332784
299.00731118224643978
299.00425971500959577
299.00003700098898207
298.99656679833856288
298.99637126962954881
299.00146190431922832
299.01234356189843311
299.02740752683786241
299.04363316891635804
299.05753232719672496
299.06662054338903545
299.07012019683202197
299.0687667162994785
299.06383707571040986
299.05619301893398188
299.04574816916431246
299.03189082963325518
299.01440363229636432
298.99429733773905582
298.97380116688930229
298.95562402281495906
298.94180131165603598
298.93265281858299431
298.92675191350411978
298.92178657930986674
298.91592871012693422
298.90881725974014671
298.90166706979812261
298.89650254011593233
298.89484974917195359
298.89659938083605084
298.89970758297840803
298.90084569163315109
298.89666233003043772
298.88508137650893559
298.86607659983178564
298.84167452114786556
298.81525489872171875
298.7904452309945782
298.77003882384690314
298.75533688319251269
298.74609021986344715
298.74087959192570452
298.73779116333815864
298.73505807349243923
298.73149815673968988
298.72672558910846874
298.7209530622212128
298.71470578107880556
298.70855038011160332
298.70294732644310898
298.69822579724586831
298.69458244090947119
298.6921919553223006
298.69127589456377336
298.69216606105356959
298.69514956128540462
298.70026859747525805
298.70697425429881378
298.7141134762266006
298.72025787582549583
298.72409361847741138
298.72480222485705781
298.72227829902385565
298.71708088147335047
298.7103044102137801
298.70334233572771154
298.69763230851572189
298.69420374509491012
298.69351934250323666
298.69533941233430596
298.69879188142556359
298.70258829089704022
298.70545346865435477
298.70635897970021233
298.70469636405641722
298.70048427043820993
298.69440844677518498
298.68769132463768301
298.68182160684108339
298.67825303478048227
298.67803937500792699
298.6815785504158498
298.68851495953862241
298.69792122368130549
298.70856278928380334
298.71909530609406147
298.72840330801625441
298.73574027196610814
298.7407149833363178
298.74311333645039213
298.74277914632142483
298.73959883977329355
298.73360170952059889
298.7251154817929546
298.71486116458430615
298.70400946820825538
298.69403937195949084
298.68626875744735116
298.68141427573738156
298.67943467774233568
298.67966489703508159
298.68097589502622213
298.68206121012815402
298.68189461263233397
298.68007095493510406
298.67685198287063031
298.67296902966978678
298.66925347127983059
298.66637949587061485
298.66460012017654435
298.6637609461618581
298.66348797501206036
298.66354299856726584
298.66407711231090616
298.66562172132705655
298.66886339317102284
298.67426319350505537
298.68174941678086043
298.69057456482113366
298.69934483425237204
298.70636734523691302
298.71023191002279873
298.71032027301146172
298.70703379969887692
298.70177769193878703
298.6965766412300809
298.69357531256576976
298.69461204405843091
298.70076811520561932
298.71204423927673588
298.72734345888096641
298.74468727797670908
298.76171434780320624
298.77623529646695033
298.78668523341929131
298.79245186153826808
298.79382247274526208
298.79173354072025859
298.78742774857551012
298.7820694303946425
298.77643176999265506
298.77083475594582751
298.76534299332325872
298.75998406657032547
298.75491328362534205
298.75058137292654692
298.7476138927457896
298.74659935366321406
298.74791815701439646
298.75165038871671186
298.75754410637745195
298.76511840411330923
298.7737958923830206
298.78300294594629349
298.79226833779483741
298.80134266023321743
298.81019676175043287
298.81896134449362989
298.82766684413894609
298.83603800487094304
298.84351740135997488
298.8494996199130469
298.85352278592404218
298.85543395705536796
298.85544878432358473
298.85419988789550416
298.85259465782945654
298.85160888326055328
298.85198592803038764
298.85396951655974362
298.85721730038744681
298.86097799250512708
298.86428902817573316
298.86614823034125266
298.86582056463896606
298.86309179817953918
300.26992127138873911
300.47346619561096759
300.34384854472858706
300.28221718892012859
300.20737036773289219
300.27912435670828017
300.32369942329546575
300.22481704651261225
300.12927916844097354
300.27081353878384107
300.62137639613285955
300.81226242594163978
300.73733207384276511
300.60789958535832511
300.51438566136818054
300.4315445438441543
300.43664505866559011
300.58639858912840737
300.77616199540733533
300.86422488024334143
300.8046499511925731
300.62639652030719617
300.40962746343450362
300.25642751981092715
300.24258438145358241
300.36129849808185099
300.5419891244646351
300.68842019523788167
300.72865407011232719
300.65796352282512771
300.53929237744455349
300.45603714333657308
300.45511504273861192
300.52820536155877562
300.64617600341892967
300.77484856748327502
300.85648324564488121
300.82125845430323352
300.65796761663534653
300.44057015143187073
300.29466601989616947
300.31225904929959825
300.48280238237595086
300.68815920963783128
300.78631834796988187
300.71699201389913014
300.54029664047925507
300.3799302359967669
300.33127157368022608
300.41461336024542561
300.58946809996626826
300.77312852181546532
300.86171992826746191
300.79468209669840917
300.61182411104744006
300.42708039414429777
300.33734107374641553
300.36280612684225844
300.46183307091871484
300.56237720417266246
300.60330473684194885
300.56969974182419492
300.5017179520050945
300.462712136197581
300.48050855497297107
300.52978748739076309
300.568007252461598
300.56480295332460173
300.51511877735583766
300.44429381769390375
300.39283919933740208
300.38894962279260881
300.41934238667448653
300.44611146495981302
300.4434661826444426
300.41512796802408047
300.38610637515239432
300.38098248846671368
300.40066813627157671
300.43610453425412743
300.47629185930446738
300.52077422101262982
300.57372690159019157
300.63287629753045849
300.67855263618724848
300.68144048779834065
300.62645867121068477
300.52368958652641595
300.40132445372694292
300.28147937387745969
300.17687526613957516
300.09917728572122542
300.06590235321931459
300.09318767624074553
300.17749275589903846
300.29882543626553115
300.42538188245617903
300.52378941392646539
300.56744068255608227
300.54381400624879461
300.46190461864830468
300.35284496238159591
300.25493183062030766
300.20241949508613288
300.21130484485320267
300.27801238446357956
300.37988293868397705
300.49116883967815284
300.59346405587331219
300.67594230469342165
300.7257082520327458
300.7303764820858305
300.68056965145490267
300.57549405608841653
300.4210649269821829
300.21975307331450722
299.97674581722009179
299.70755919809136003
299.43627283376088144
299.18676017146646018
298.97365090210809058
298.80041652922693629
298.6645836803041334
298.56272498610519506
298.49150919949710214
298.4450665915941272
298.41518915049636007
298.39237200277381135
298.36970976704657232
298.34532206787304176
298.32352211270892894
298.312479398523692
298.31844522608832904
298.34041398834648362
298.37047913098996332
298.39859358835519743
298.41867348342395871
298.43058563182790976
298.43624088688704887
298.43606173008328142
298.42957967029752808
298.41875536955859616
298.40882862282040833
298.40567411124953878
298.41274270849794448
298.42977320421323384
298.45391024718179551
298.48049738053259716
298.50319876603964531
298.51656322576047842
298.51894010744240404
298.51406171901766129
298.50846237137028538
298.50728834665238765
298.51233022488872848
298.52300666223379721
298.53784520217033105
298.55652580839989696
298.57965051255354183
298.60837227083317202
298.6419658123382419
298.67684386638723026
298.70645540829121956
298.72226284409265418
298.71860478088586888
298.69732668488484251
298.66853017171507645
298.64670670194391278
298.64327315323771472
298.66107379768737928
298.69419322496992208
298.73222052049061404
298.7671224745033669
298.79730458840532492
298.82498437467648955
298.85117323571233783
298.87334802809101575
298.88763508194347196
298.8932365096576973
298.89408304657848703
298.89622444224795572
298.90501489901566856
298.9221717188928551
298.94545057945049393
298.97014266359332169
298.99085138500589665
299.00261709408891875
299.00193564961824677
298.9885940705333951
298.7214945316839021
298.72629720562048306
298.73201610010698914
298.73643299021574649
298.73859529404666091
298.73847366992907837
298.73623909965004941
298.73234658022647636
298.72786880668775211
298.72441276394721399
298.72338224221607561
298.72500502584568949
298.72829515724509974
298.73209101740513916
298.73621891876905465
298.7417151685580734
298.74960279695670806
298.75922909671078287
298.7677934548723897
298.77159148335749705
298.76839873485062071
298.75934138524911532
298.74866268702965044
298.74162689617230626
298.74164319684018665
298.74832159813905719
298.75798969067756161
298.76624714236982072
298.77064539061012738
298.77206373459080169
298.77413915975813552
298.78101276334075465
298.79472488582769074
298.81378778586758926
298.83382427738553133
298.8497335491452418
298.85829593762139211
298.85965202494304549
298.85698011487494341
298.8551007923006182
298.85816865744919824
298.86817082212070318
298.88392365962755548
298.90228870037515208
298.91947053647976418
298.93291672594864394
298.94192772377016354
298.9471669857781535
298.95024255437135707
298.9529992932418736
298.95700762455498989
298.96353270476356556
298.9736468141367709
298.98809139902186871
299.00697864502996026
299.02952926939235567
299.05382180524844671
299.07690139485100644
299.09546054934503445
299.10689776658387018
299.11019418677261683
299.1063014748605724
299.09762807159756903
299.08712428946319051
299.07727312772141204
299.06922656138067396
299.06262502866752584
299.05615810599385895
299.04852969486512393
299.03918575242721545
299.02856440066739196
299.01786566664901557
299.00858314010270078
299.00199419346466811
298.99873974401509713
298.99856088960530087
299.00038319011247268
299.00261663091851005
299.00381726636146595
299.00327764443221668
299.00147938053362395
299.00001583803117455
299.00097517398245373
299.00599454830449986
299.01543447812758814
299.02800772115512018
299.04121367141544852
299.05233506472677618
299.05946941988008803
299.06205343398499963
299.06062566487617005
299.05595125430727421
299.04821104200499349
299.03684629922054228
299.021146411648715
299.00126419969200242
298.97880496342042989
298.95661854877658925
298.93768981869078516
298.92388660516155596
298.91510493947578198
298.90937643513211697
298.90405120970319786
298.89732897155954561
298.88917352836654118
298.88119436954804087
298.87562907818886515
298.87394475651603898
298.8756743486970322
298.87829319812334461
298.87813992057317591
298.8719139555320794
298.85801945165559346
298.83715132251262503
298.81202856359277575
298.78649938297485278
298.76420820028408798
298.74755699202950154
298.73718247719426699
298.73203273937457425
298.72999994201660456
298.72878525424641794
298.72667460358110247
298.72291842461117994
298.71771781253187328
298.7118363697356358
298.70603906250300952
298.70074951118999707
298.69595650889272065
298.69137360492953803
298.68676563804831403
298.6821465169749672
298.67790811241354731
298.67483524295181496
298.67378790379370912
298.67544366454404781
298.67981217628664581
298.68607171214841856
298.69274006463115256
298.69822494268038326
298.70119892148170493
298.70108570379352386
298.69815703627159564
298.69337314313952447
298.6880465844934065
298.68352817390859855
298.68071559412322813
298.67990264892119967
298.68082762589909862
298.682712596617705
298.68451041616970087
298.68518492831088906
298.68402731238887782
298.68071234048125007
298.67543171511698574
298.66900775308170068
298.66270371544140971
298.65800763144648045
298.65630703478598207
298.65855236323443478
298.6649701728588866
298.67493577986630271
298.68715010387876418
298.70001538837988164
298.71197948366398123
298.72187379045578837
298.72905717839648787
298.73341286011628881
298.73507357105080473
298.73418633758012675
298.73086325358622162
298.72527017272102512
298.71779406226028186
298.70912144694534618
298.70030247883119046
298.69261680980764595
298.68728589668654649
298.68501211666983863
298.68571994233701616
298.68862452651524109
298.69253085494671041
298.6961301326466014
298.69832378147555119
298.69851570879228575
298.69671683767688819
298.69343677374956769
298.68939992809117712
298.68527586425364007
298.68147103957215904
298.67809708292372761
298.67508612249110911
298.672400665895168
298.67027835528170954
298.66932777872443694
298.67031799479406118
298.67391856904475844
298.68033859270917674
298.68910657265104192
298.69916275712921561
298.70902115277760913
298.71711110034192416
298.7223404040316268
298.7244445809408262
298.72412182172217854
298.7228368674582839
298.72237354806770782
298.72438259053268439
298.72999942188818068
298.73948895221610655
298.75214517428952377
298.76646584498291759
298.78049632827185178
298.79236787182878743
298.80072927852927478
298.80502358652813655
298.80554555406860118
298.80315033438512273
298.79891261205534647
298.79389317006388183
298.7888657183008263
298.78418648393397916
298.77991884194290151
298.77605349396128531
298.77267972787200279
298.7701045158921147
298.7687958528758827
298.76918335629028434
298.77141686987613411
298.77528556671154547
298.78036715069220008
298.78621680699717444
298.79256638297101745
298.79943249193701149
298.80707020501370152
298.8158014666448139
298.82582894960273734
298.83708069382959138
298.84908231848504556
298.86093118747373865
298.87148102712154696
298.87963671207774041
298.88471305575046699
298.88667613146270696
298.8861467014455684
298.88413515052769753
298.88177154215270548
298.8800777285638901
298.87966863330154865
298.88055934910954647
298.88221608753354985
298.88377289459657504
298.88429835700111425
298.88312619185273888
298.8800168434988791
298.87517978499693072
298.86913637470235017
300.00839073560439374
300.3470149559990432
300.34020308513760256
300.28272278289608721
300.21365229201421698
300.23855516018807066
300.25431005606196777
300.20572065023520736
300.16404920489515007