/*--------------------------------*- C++ -*----------------------------------*\
  =========                 |
  \\      /  F ield         | OpenFOAM: The Open Source CFD Toolbox
   \\    /   O peration     | Website:  https://openfoam.org
    \\  /    A nd           | Version:  12
     \\/     M anipulation  |
\*---------------------------------------------------------------------------*/
FoamFile
{
    format      ascii;
    class       volScalarField;
    location    "0.01";
    object      alphat;
}
// * * * * * * * * * * * * * * * * * * * * * * * * * * * * * * * * * * * * * //

dimensions      [1 -1 -1 0 0 0 0];

internalField   nonuniform List<scalar> 
106891
(
1.0659534059302052116e-05
1.0648792868708058107e-05
1.0635421883755578516e-05
1.0624610978738160101e-05
1.0611176921004143443e-05
1.0600464149256427212e-05
1.0587231704392359064e-05
1.0576838862704738024e-05
1.0563954888565396859e-05
1.0554072491336874895e-05
1.0540102970616405857e-05
1.1613737384381123699e-05
1.1688646146687550715e-05
1.1774630946557141127e-05
1.1866813097320743432e-05
1.1957872321329385035e-05
1.2042824708518941909e-05
1.2121114584116828974e-05
1.2194452986010384852e-05
1.226005157330449154e-05
1.2312117552240958392e-05
1.2343284443744227338e-05
1.2352216334350545686e-05
1.2345939962744479856e-05
1.2330489881717431792e-05
1.2290034132864585803e-05
1.219775904316095839e-05
1.2111162935972468458e-05
1.2048608299646411361e-05
1.2007428968801690065e-05
1.1982493114801631403e-05
1.1968737355047402872e-05
1.1960792017603096834e-05
1.1961271376298597403e-05
1.1993823561039414634e-05
1.2124551252239032395e-05
1.2313971707438465053e-05
1.2467498631749774368e-05
1.2583210355745979848e-05
1.2665963782631403409e-05
1.27226037544407695e-05
1.2760254472853218462e-05
1.2783126309735790512e-05
1.2793276363411712959e-05
1.2793651358435539212e-05
1.2787806892687236582e-05
1.2777831598516073812e-05
1.2753368554952774645e-05
1.2680436078821755337e-05
1.1318463326370616177e-05
1.1305898397974309435e-05
1.1296147379419372962e-05
1.1283698647150474477e-05
1.1273777301204711865e-05
1.1260919593037200278e-05
1.1250374125262795305e-05
1.1236709838559404097e-05
1.122555892884110014e-05
1.1211244505442676669e-05
1.1199623386491340323e-05
1.1184954931479090885e-05
1.1173167174163678694e-05
1.1158480870870741649e-05
1.1146845466318240566e-05
1.1132382756902351023e-05
1.1121137628830838354e-05
1.1107037989149820832e-05
1.1096332097775904869e-05
1.1080945003169508184e-05
1.2380908082038411043e-05
1.2499123860581845617e-05
1.2604418958454846026e-05
1.2691073425423809524e-05
1.2758637474862856691e-05
1.2811431208505227606e-05
1.2855375505492534584e-05
1.2892157517891548706e-05
1.2919483623895648534e-05
1.2933890101537289451e-05
1.2934563923911688985e-05
1.2926494073587619602e-05
1.2909591170658354641e-05
1.2868483415083383821e-05
1.2776503038963998662e-05
1.2686386958403601574e-05
1.2617868766013702793e-05
1.2569833561022556912e-05
1.2539813151005346203e-05
1.2523133837429029211e-05
1.2514322027955460096e-05
1.2513121400036709787e-05
1.2542031154583627387e-05
1.2664122624323233195e-05
1.2848662096055312148e-05
1.3001364723263314361e-05
1.3125386139976473509e-05
1.3226809764885743613e-05
1.3312423108271357361e-05
1.3384542421390089128e-05
1.3441617986874537802e-05
1.3480304642492733496e-05
1.3499186574787477286e-05
1.3501663476521818787e-05
1.3494703234886760727e-05
1.3479901132165659925e-05
1.1906053614886526602e-05
1.1892378284389963224e-05
1.1881926120368628311e-05
1.1868562993590698834e-05
1.1858115870140992223e-05
1.184446302059201161e-05
1.1833465207666734329e-05
1.1818940234133004164e-05
1.1807108659611262349e-05
1.1791649224661648505e-05
1.1779105816949908845e-05
1.1763091964229804428e-05
1.1750254348233460028e-05
1.1734206891142093097e-05
1.1721595250633477369e-05
1.170589513419649253e-05
1.1693823073101349938e-05
1.1678557166733490011e-05
1.1667067714911452398e-05
1.1650303746182294945e-05
1.2974673336820887048e-05
1.3075359407412620263e-05
1.3171523645573831918e-05
1.3262641941754798122e-05
1.3350198695179862917e-05
1.3433625941397492643e-05
1.3510760596287206943e-05
1.3575346076852286379e-05
1.3619279027053028956e-05
1.3639492074352877596e-05
1.3639095518665896262e-05
1.3628362498143749908e-05
1.3601651792081510166e-05
1.3525286880958360783e-05
1.3403011423591317805e-05
1.3308982144846320163e-05
1.3247898074962360121e-05
1.3213792563803903549e-05
1.3198495845005713231e-05
1.3191474831716390505e-05
1.3201098132645506142e-05
1.3269687414378006729e-05
1.34272499033984276e-05
1.3566889724924911765e-05
1.3679667732011953246e-05
1.376984571697221181e-05
1.3849196255342764557e-05
1.3928390939517938389e-05
1.4013254071886907965e-05
1.4100852532361743348e-05
1.4182459161094539607e-05
1.4246355673876376835e-05
1.4284571159746815063e-05
1.4297280916072600162e-05
1.4293048157687475108e-05
1.4279468868637930554e-05
1.2511924446540357431e-05
1.2500547762498862847e-05
1.2485967856429087245e-05
1.2474751664046399168e-05
1.2460034334190285484e-05
1.244831405605687832e-05
1.2432694692411757332e-05
1.2420008057007898998e-05
1.2403269374133489404e-05
1.2389697279584279216e-05
1.2372243627857880757e-05
1.2358329104729876881e-05
1.2340908244909420017e-05
1.2327372184047823289e-05
1.2310493541703088476e-05
1.2297644641100160214e-05
1.2281246010819330813e-05
1.2269018765764884267e-05
1.2250907540506523715e-05
1.3476109945038597173e-05
1.357079207944237006e-05
1.3685728783757781946e-05
1.3818629081784676143e-05
1.3963425809879381059e-05
1.4108430869460427155e-05
1.4239097534168182964e-05
1.4340565672372680478e-05
1.4402617592870116544e-05
1.4426563073992948198e-05
1.4423211409596005012e-05
1.440829492100749653e-05
1.4373151386549429115e-05
1.42761008687569355e-05
1.4147024388478749996e-05
1.4053508382261149909e-05
1.3995680739484014327e-05
1.3965738375238561687e-05
1.3953147788616795415e-05
1.3949744112358225865e-05
1.3976087412341152238e-05
1.4069175205243068452e-05
1.4162677388092372835e-05
1.4238472053188576085e-05
1.4308217865182043874e-05
1.4381804480973794225e-05
1.4470471575615815506e-05
1.4578774410034809876e-05
1.4703064938515434336e-05
1.4830547380416557313e-05
1.4945065480063950559e-05
1.5030974330159435753e-05
1.5080180605294657247e-05
1.5095538064708079464e-05
1.3181424185562448168e-05
1.3164891554141585378e-05
1.3152333290690926157e-05
1.3136311941422075593e-05
1.3123987139503462916e-05
1.3107876136628189429e-05
1.3095060313368207469e-05
1.3078071782951892777e-05
1.3064272611893231257e-05
1.3046085740379096223e-05
1.3031337425069999423e-05
1.3012486026867344221e-05
1.2997623026901214429e-05
1.2979018793260732454e-05
1.296476124901480813e-05
1.2946849605379057112e-05
1.2933383764627601114e-05
1.2915991516397774949e-05
1.2903092312085398104e-05
1.2883657194974853963e-05
1.4425300449660300318e-05
1.4561331300581947492e-05
1.4667469498741361208e-05
1.4755308280146051735e-05
1.4836225977588622714e-05
1.4917620678050769415e-05
1.4998410323910710886e-05
1.5071058787948108653e-05
1.5124924807625502186e-05
1.5153259888036122154e-05
1.5157593741162429153e-05
1.5147040854619467549e-05
1.5129666150568856728e-05
1.5090922707209735633e-05
1.4991877072896226325e-05
1.4875611645211493251e-05
1.478971227041777854e-05
1.473418202070635676e-05
1.4704047530585710998e-05
1.4690631224089721309e-05
1.4684808959839460883e-05
1.4699131689122825364e-05
1.4779946414330404428e-05
1.4929926168325489391e-05
1.5061645470053068216e-05
1.5172070157517990321e-05
1.5268514173513055552e-05
1.5360240725912397786e-05
1.5452586725435364022e-05
1.5543101253352534783e-05
1.5625151593490720889e-05
1.5688675918595040138e-05
1.5727077483252954856e-05
1.3854887442671875937e-05
1.3840730166622546186e-05
1.3822785269591620177e-05
1.3808775996539594287e-05
1.3790833426030433976e-05
1.3776431307255777793e-05
1.3757660122770780907e-05
1.3742370944770310794e-05
1.3722550357883039405e-05
1.3706595115141169419e-05
1.3686407416629596792e-05
1.3670748714941654715e-05
1.365116924534150842e-05
1.3636470180516085786e-05
1.3617804512977897568e-05
1.3603920822270675978e-05
1.3585622852800246542e-05
1.3572067209689397569e-05
1.3551454164648390105e-05
1.5595164832571896851e-05
1.5666325553407357715e-05
1.5714479243351606175e-05
1.5749116997709986665e-05
1.5775705399219180149e-05
1.5797282860175096544e-05
1.5811560413800938071e-05
1.5816730467874863265e-05
1.5811719899124391056e-05
1.5799652796617220181e-05
1.5783583813185621768e-05
1.5753432285567398497e-05
1.5676710119908741144e-05
1.5566222351365689122e-05
1.5481464682202567424e-05
1.5426245112532593944e-05
1.5397532843175434274e-05
1.5385109195375990183e-05
1.538206944018530092e-05
1.5411945172381057834e-05
1.5549836415183404054e-05
1.5774821335655000553e-05
1.595762944437983751e-05
1.6094885670078477343e-05
1.6192888629381301777e-05
1.626194405651010594e-05
1.6313461044451108884e-05
1.63564257942254505e-05
1.6396248611234324967e-05
1.6432782537502622677e-05
1.646093661447903722e-05
1.6474556880527275532e-05
1.4582260623575401458e-05
1.4566094698679452778e-05
1.454583252903643965e-05
1.4529744229139704764e-05
1.450949524843447737e-05
1.4493137039186266345e-05
1.4472258187506982635e-05
1.4455286831474981868e-05
1.4433779927654649225e-05
1.4416678618540917478e-05
1.4395363055796790957e-05
1.4379175029564529096e-05
1.435895128234581408e-05
1.4344015324516133081e-05
1.4324771945711226281e-05
1.4310621086130505207e-05
1.4291527312667041261e-05
1.4277350891207353384e-05
1.4255943207176726532e-05
1.6359474920177153023e-05
1.644538156079546404e-05
1.6521083511993784899e-05
1.6583844384291532227e-05
1.6631239589492966864e-05
1.6659217280501670185e-05
1.6668764290286444761e-05
1.666256516032484409e-05
1.664812115550052922e-05
1.6625803982608482597e-05
1.6575848770360987933e-05
1.6459357953180933605e-05
1.6348100232367348248e-05
1.627304933302389057e-05
1.6232056942303702674e-05
1.6215014299978657697e-05
1.6209091273743649563e-05
1.62278497558295028e-05
1.6327417837753815233e-05
1.6483192464769339468e-05
1.6605748130498958301e-05
1.6700107438341761358e-05
1.6777273139907527557e-05
1.6850966189790120975e-05
1.6932170635455238446e-05
1.702810300881723557e-05
1.7137054676982334728e-05
1.7248370169282479131e-05
1.7344183521066109798e-05
1.7409967578947674105e-05
1.5334955340598648075e-05
1.5312022497861224851e-05
1.5293577700205863301e-05
1.5270757336331865607e-05
1.5252327338523561571e-05
1.5229277809704071893e-05
1.5210750524325557757e-05
1.5187717671800922718e-05
1.5169699224129773433e-05
1.5147460757180446897e-05
1.5130869740004624984e-05
1.5110061361313615951e-05
1.5094946459864399838e-05
1.5075182491439335881e-05
1.5060752030701541194e-05
1.5040832301286772554e-05
1.5025997647002416841e-05
1.5003586282735938452e-05
1.7188349014010927953e-05
1.7276403675156736011e-05
1.7356942582903427011e-05
1.7423333878179927562e-05
1.7468908977784564692e-05
1.7490615892760934941e-05
1.7491743844377144782e-05
1.747899549562473352e-05
1.7461195683447887632e-05
1.7431364090731362609e-05
1.7358741921470123879e-05
1.7235462957445928724e-05
1.7140191547855212491e-05
1.7079459381497648428e-05
1.7049960746284688551e-05
1.7038696108345419914e-05
1.7037983311754794757e-05
1.7073716519399843595e-05
1.7193471254897009498e-05
1.731165888655541383e-05
1.7395767143034483016e-05
1.745419366179728785e-05
1.7499555194399148199e-05
1.7548043644481338209e-05
1.7616539674955473011e-05
1.7720097589904994998e-05
1.7860526074642424371e-05
1.8022927878285102362e-05
1.6171206481683528873e-05
1.614598306039029927e-05
1.6125416792214066131e-05
1.610040497383209571e-05
1.6080191214667796017e-05
1.6055523108082202244e-05
1.6035875790363320932e-05
1.6011836009549086803e-05
1.5993178275704122927e-05
1.5970392788545759535e-05
1.5953456479481436598e-05
1.5932226866615946636e-05
1.5916842108165983388e-05
1.5896574746798071962e-05
1.5881643408474328745e-05
1.5860878771081775328e-05
1.5845296645867258553e-05
1.582293431264332714e-05
1.7860964637812521555e-05
1.7929634989260317799e-05
1.8012230173973257978e-05
1.8098597226085810921e-05
1.8175663168741531297e-05
1.8229761666524970694e-05
1.8254352764237693802e-05
1.8252194560058352193e-05
1.8235808362896501801e-05
1.8207782283462733015e-05
1.8138319661455842326e-05
1.8043183567335926168e-05
1.7984095279788639161e-05
1.7958805204725744327e-05
1.795061037992360238e-05
1.7965046932145213994e-05
1.8059055632128096386e-05
1.8237739847188021955e-05
1.8367001919567646273e-05
1.8442617849255390692e-05
1.8473892498311631844e-05
1.8474218817673612318e-05
1.8460004857439275957e-05
1.8440651739188601051e-05
1.8421169268007693418e-05
1.8407871229527406867e-05
1.8420225856381777264e-05
1.690429677298234458e-05
1.6876884513306703196e-05
1.6852558920661676168e-05
1.6826002262298148267e-05
1.6802264467032013617e-05
1.6776671961312883028e-05
1.6754050513875010212e-05
1.6729363493517073695e-05
1.6708133426270530551e-05
1.6685067308367487916e-05
1.6665021980420126021e-05
1.6643381485079036895e-05
1.6623969809141084833e-05
1.6602406542660302707e-05
1.6582614771533462793e-05
1.6559968787445524311e-05
1.6539253509757459215e-05
1.822219705040801989e-05
1.8137929267251258757e-05
1.8100758850742026273e-05
1.808580440858950319e-05
1.8097674753004165459e-05
1.8205710398271227415e-05
1.8505160155778026726e-05
1.877216017939891196e-05
1.8946696488549388294e-05
1.9035710568092795771e-05
1.9061134659665606079e-05
1.9051182169504027623e-05
1.9031243865302606953e-05
1.9003853207779771383e-05
1.8986420895093338913e-05
1.8978973537798746917e-05
1.8990477621210488261e-05
1.9031734332507326002e-05
1.9052500680145648208e-05
1.905168276133401272e-05
1.9038303975024038821e-05
1.8999111856711165203e-05
1.8873346751094492529e-05
1.8694109844689714374e-05
1.8565158023804978206e-05
1.8489765605869298951e-05
1.8455265608117967028e-05
1.7335117069357760703e-05
1.73112131341000608e-05
1.7279916290235565734e-05
1.7257006633334907441e-05
1.7226577611025955362e-05
1.7204538135479594435e-05
1.7174988321494974902e-05
1.715400473584847494e-05
1.7125159511703206053e-05
1.7105107287575064005e-05
1.7076930733069195311e-05
1.7057348311266103613e-05
1.7029141969817560676e-05
1.7009267926813896008e-05
1.6975727720740983279e-05
1.696676971276957533e-05
1.4504241133785778916e-05
1.4419843842395011269e-05
1.4373754583420578565e-05
1.4351047402531976618e-05
1.4338671782955327759e-05
1.4335922232298275457e-05
1.4367250906371151271e-05
1.4507443212921625054e-05
1.4836678158527131832e-05
1.5149539476263791486e-05
1.539724222194621743e-05
1.5568820654428992204e-05
1.5668610169889793013e-05
1.5713572620485852157e-05
1.5723667407570302143e-05
1.5718902037748438364e-05
1.5710535400523368378e-05
1.5694984659294634497e-05
1.5649293758035836107e-05
1.5512129230943976334e-05
1.5314861342073000114e-05
1.5138481883784899286e-05
1.499184683736247562e-05
1.4872865358411751455e-05
1.4782073345250944178e-05
1.4719550260773636748e-05
1.4682764620439861072e-05
1.4663117841209987173e-05
1.3538181626370032572e-05
1.3513403870771772305e-05
1.3495398563598039537e-05
1.3471313506540266158e-05
1.3454020572392937674e-05
1.3430520773494413408e-05
1.3413842514755672887e-05
1.3390557530670413084e-05
1.3374273314639254469e-05
1.3351048654800393029e-05
1.3334680767640574384e-05
1.3311089499393017826e-05
1.3294415154011647394e-05
1.3266615564165329275e-05
1.32626001916013047e-05
1.3934060631307665389e-05
1.3896570166118129387e-05
1.3878297645925059502e-05
1.3867343886501038138e-05
1.3864942522939154449e-05
1.3888522381200004669e-05
1.395608894517218074e-05
1.403933421215113228e-05
1.41350732405678762e-05
1.4236123469709868096e-05
1.4333852746108902601e-05
1.442378705819360985e-05
1.4503746645311807494e-05
1.4571799890629711608e-05
1.4624606026032499137e-05
1.465720543144909596e-05
1.4668866443596334696e-05
1.4666981384348281049e-05
1.4659253304334169321e-05
1.4644020250616088859e-05
1.4608656367591773008e-05
1.4527014063455786605e-05
1.4431673617860509817e-05
1.4344244628872434961e-05
1.4272032849154314945e-05
1.4221001762643645217e-05
1.419105230674038722e-05
1.2842531681239416732e-05
1.2826387178938658616e-05
1.2805226880814234047e-05
1.2789668164447160392e-05
1.2768941037689772325e-05
1.2753862309237535514e-05
1.27331942866449539e-05
1.2718192461367290553e-05
1.2697330863368050432e-05
1.2682150546275024251e-05
1.2660904256381079661e-05
1.2645483439825260866e-05
1.2621389947112521591e-05
1.2610869085381290418e-05
1.3306612545158912571e-05
1.3299790200864038131e-05
1.3314560858974309457e-05
1.3383009707000762518e-05
1.3445383213654266074e-05
1.3481049844626595316e-05
1.3503501128256451333e-05
1.3528180481682584201e-05
1.3565518139434016946e-05
1.3622145376122216529e-05
1.3698346297063622668e-05
1.3788452859599172881e-05
1.3880143260175003048e-05
1.395920429427255214e-05
1.4012932670696793281e-05
1.4037589624280044043e-05
1.4039827093042677489e-05
1.4031640329598494543e-05
1.401267173836011042e-05
1.3957676837363601537e-05
1.3863028617799452591e-05
1.3782498823010779591e-05
1.37198172960271207e-05
1.3675083788323698516e-05
1.3646023437140858699e-05
1.3628505165654662486e-05
1.2357804400400991697e-05
1.2337836700806075933e-05
1.2323146636512193191e-05
1.2303547283205976091e-05
1.2289234809211686627e-05
1.226963351901709096e-05
1.2255250926898753066e-05
1.223532180588330098e-05
1.222065554214583666e-05
1.2200238839385377606e-05
1.2185271749267378598e-05
1.2162761133819563857e-05
1.2151261013223592082e-05
1.2867189828168824859e-05
1.2909505285236599415e-05
1.2944895923249735877e-05
1.2978218123122569361e-05
1.3012609600771288539e-05
1.3050065666561420604e-05
1.3090195565470022341e-05
1.3131951215851665762e-05
1.3175159146525163294e-05
1.3221663681958153341e-05
1.3271373898348075987e-05
1.3319864545344103506e-05
1.3359683142903386273e-05
1.3383333269168056127e-05
1.338913166471965776e-05
1.3383457264191008301e-05
1.3372142932340964363e-05
1.3344379009006221526e-05
1.3279212986572178534e-05
1.3216544949922034226e-05
1.3171092896493855409e-05
1.314007854871846297e-05
1.3120090868493349554e-05
1.3106223610365700408e-05
1.3101984314672899639e-05
1.187259073215358009e-05
1.1858681453219943982e-05
1.1839980783497402729e-05
1.1826401419892673762e-05
1.1807679825196833962e-05
1.1793911543077141736e-05
1.1774797307934953253e-05
1.1760709309461073597e-05
1.1741043355879585849e-05
1.1726589124422931624e-05
1.1704831376309753635e-05
1.169368713595382006e-05
1.2404134434618731029e-05
1.2443616045512743173e-05
1.2489112306050742307e-05
1.2542602852339882727e-05
1.260148083317572355e-05
1.2658915638642011394e-05
1.2708102508184360664e-05
1.2745340671624645732e-05
1.2772575395253850809e-05
1.27936519927734634e-05
1.2811229362886420661e-05
1.2823879553321301615e-05
1.2828602431540533558e-05
1.2825218544049739441e-05
1.281695439854837699e-05
1.28044186458389289e-05
1.27768145922422258e-05
1.2720970031558364194e-05
1.2670923077916963835e-05
1.2633731586011674516e-05
1.2607534085985765796e-05
1.2589918196918116678e-05
1.2576934679462978823e-05
1.2571129441412182514e-05
1.1917213157965949797e-05
1.2012132890274164479e-05
1.2104387052405750523e-05
1.2192511931587501971e-05
1.2268931773378518191e-05
1.2326602903865900508e-05
1.2362064751567432787e-05
1.2380064481029309529e-05
1.2388033774018284615e-05
1.2393110846462455997e-05
1.2396013255793989096e-05
1.2394597847393271691e-05
1.2388473510605895264e-05
1.237934236516867692e-05
1.2362799809206514336e-05
1.2320582877687827886e-05
1.2251783005295413146e-05
1.2196745038788778836e-05
1.2158242764253026979e-05
1.2133035403481687645e-05
1.2117027073167932374e-05
1.2105424972715362228e-05
1.2102860688644172265e-05
1.1594030486499043146e-05
1.1673831412502685213e-05
1.1755718435450636787e-05
1.1826522372625896811e-05
1.1877229273690387084e-05
1.1905578621114899429e-05
1.1917009278614638007e-05
1.1918696120172146132e-05
1.1915463126489579917e-05
1.1909598088347367494e-05
1.1902020741568861709e-05
1.1890804153984817115e-05
1.1866975197459756538e-05
1.1810001829924565443e-05
1.1749209690027269685e-05
1.1704507750041835668e-05
1.1674624997390787903e-05
1.1655856961425687965e-05
1.1643426595190630059e-05
1.1634697818318864802e-05
1.1641912494909184924e-05
1.1474571284808353e-05
1.1504119194330085838e-05
1.15101097437935136e-05
1.1504962252090144461e-05
1.1497039633408288813e-05
1.1484176776188597519e-05
1.1458841548048046918e-05
1.1425382196286720777e-05
1.1390124974479818513e-05
1.1355304117803882491e-05
1.1323451905587972587e-05
1.1296727055395216441e-05
1.1276250249747356847e-05
1.126087327995981559e-05
1.1249048507109492653e-05
1.1239343306331991471e-05
1.1239603036003082705e-05
1.113813005912144421e-05
1.1134881772952042429e-05
1.1129506784013303458e-05
1.1122858440741977847e-05
1.1114398646342750409e-05
1.1102847669621635618e-05
1.1083888053079058299e-05
1.1044966298963375948e-05
1.0998721046148290633e-05
1.0956802118681428817e-05
1.0923136294557898483e-05
1.0898966484055824696e-05
1.088332752133128119e-05
1.074248513965281215e-05
1.0762092694778246056e-05
1.0765888143102953886e-05
1.0759826404492539863e-05
1.0748077784733323372e-05
1.0719047942617805337e-05
1.0654906942208754051e-05
1.0595129841358025301e-05
1.0548405766179765422e-05
1.0513604821376679822e-05
1.0489372856734166338e-05
1.047330400108286329e-05
5.8127087343020747941e-06
5.8053074806962443063e-06
5.8058310578608513021e-06
5.8209851409014291181e-06
5.8913130095135542763e-06
6.1356459082158852454e-06
6.4507029432564749134e-06
6.6539749347982684894e-06
6.7562749879489454233e-06
6.7861057839017000683e-06
6.7819864736170745005e-06
6.7638571646252202056e-06
6.7034013681523887889e-06
6.5280988768637491056e-06
6.323475970051096807e-06
6.1580819806697275893e-06
6.0310807986694581681e-06
5.9380041570129641425e-06
5.8737958213847981436e-06
5.8337667640709111436e-06
8.8733323430551057766e-06
8.8542298489051780863e-06
8.8487568228046137021e-06
8.8527994099735839531e-06
8.883895026917239417e-06
9.0007152134835288488e-06
9.3100766197362808634e-06
9.5890056166570036996e-06
9.7555605579730631871e-06
9.8230914501496183406e-06
9.8294960479505677232e-06
9.8136800676578129457e-06
9.7684931938441326268e-06
9.6297457465038973869e-06
9.3470349112394762731e-06
9.0932213509955205495e-06
8.8963255719255363474e-06
8.7574009149333074167e-06
8.6705563143394587987e-06
8.6244406558401649402e-06
8.6045167059347824734e-06
8.5975801940796130559e-06
1.6117228693107174482e-05
1.6111895373644129491e-05
1.611074127140195024e-05
1.6126486865654296308e-05
1.617971283178262025e-05
1.633805670951167131e-05
1.6684830651027919286e-05
1.6994288172535032538e-05
1.7196296762151263047e-05
1.7283644165839491823e-05
1.7297160102568762791e-05
1.727996998787269912e-05
1.723592000464290621e-05
1.7111247316146460331e-05
1.6861453841112704512e-05
1.6641489008332893028e-05
1.6488197271084981024e-05
1.640639877836447803e-05
1.6370267814379333668e-05
1.6355230735079475323e-05
1.6350444518644957251e-05
1.6363327205006235858e-05
1.6411769622871118604e-05
1.6547500912850111372e-05
1.6810031347081987166e-05
1.7102079349012234191e-05
3.6288087353901234665e-05
3.6368962792681715798e-05
3.6517707673972891439e-05
3.6782928504079138998e-05
3.7171081075323003119e-05
3.7624582924785031867e-05
3.8076512277645467022e-05
3.8428519908713708677e-05
3.8637474803318789304e-05
3.8701416951977733012e-05
3.868491444452502306e-05
3.8632517347670805401e-05
3.8503450771157800693e-05
3.8286711066496339107e-05
3.8136033029036993196e-05
3.8047172182166185978e-05
3.7999489329032486975e-05
3.7975284401720003501e-05
3.8004939729349827718e-05
3.8180592033793012781e-05
3.8485637558148969918e-05
3.8816906583333681848e-05
3.9189263310949359041e-05
3.9594696177930869445e-05
4.0012212535073208848e-05
4.0409526853585625713e-05
4.0743141917892774346e-05
4.0986026654252396943e-05
7.4272399352997932657e-05
7.4379003480392827255e-05
7.4525894210712565532e-05
7.4720958350483419387e-05
7.4944637393306381425e-05
7.5171779869576038006e-05
7.534963005314322974e-05
7.5444859740044325266e-05
7.5445010393701504299e-05
7.5380427210996450629e-05
7.5278259899809362907e-05
7.5111260214758723179e-05
7.4928312919275396318e-05
7.4800540458993777012e-05
7.4717328015703882702e-05
7.4661564422770588319e-05
7.4639006166158568278e-05
7.4713490960780142643e-05
7.4837039433017400205e-05
7.496299745837886456e-05
7.5099060398181431437e-05
7.5237888543359100172e-05
7.5363569592909693284e-05
7.5457023960840818172e-05
7.5507755403934710952e-05
7.5509409863514504574e-05
7.546497885647120141e-05
7.5396282107694973288e-05
7.5316156208375534807e-05
7.5207969475269093127e-05
0.00010737944363097523374
0.00010721171784789919291
0.00010704694114417447959
0.00010686689392623638167
0.00010665748544187985541
0.00010641546124092380839
0.00010614792873827930109
0.00010586484497831274423
0.00010557286186235258858
0.0001052755273085246283
0.00010497792086860316776
0.00010469204078252223624
0.00010443349531711076689
0.00010421269953001721577
0.00010402565059541977641
0.0001038538234244700849
0.00010367454403999568134
0.00010347518008400994087
0.00010325797490312867513
0.00010303457294259181064
0.00010281550013724303247
0.00010260073084178959356
0.00010237828441549522564
0.0001021341499884062114
0.00010186063912912044058
0.00010156126087392154406
0.00010124779101647359675
0.00010093345463914438318
0.00010062852520418900362
0.00010033897955372353557
0.00010006962189844775802
9.9825207549383035378e-05
0.00012323036110463309067
0.00012287491632024659816
0.0001225208993964958771
0.00012215429155020262339
0.00012176985146642550295
0.00012137547516582055881
0.00012098603844750247546
0.00012061093903325412137
0.00012024575450401484684
0.00011987582622770189683
0.00011948863881045100751
0.00011908602076764761605
0.00011868456583583270134
0.00011830172645759033613
0.00011794301228443043652
0.00011759770341476602918
0.00011724780936838203227
0.00011688449536711131816
0.00011651547522870772287
0.0001161579935299023031
0.00011582604633717580778
0.00011552052969705780075
0.00011522834649310161438
0.00011493354481059405098
0.00011462748367317709703
0.00011431226210730398632
0.00011399623710356105268
0.00011368614042450397015
0.00011338233245229948785
0.0001130818133022776673
0.0001127846074169816179
0.00011249659922960068793
0.00011222563719700943442
0.00016478492740266650245
0.00016382539752715153444
0.00016294754486357795886
0.00016205923456835902774
0.00016110445642899192688
0.00016011145291379159364
0.0001294410623573695354
0.0001290606664926302518
0.00012868278255191974786
0.00012829239036723716284
0.00012788438363076868329
0.00012746831786792582174
0.0001270607703777835041
0.00012667156222862411088
0.0001262948132600854082
0.00012591282223605904816
0.00012551134948063990084
0.00012509273649135256514
0.00012467628124252338041
0.00012428253098084913347
0.00012391903664660770877
0.00012357385826748304826
0.00012322688864397246967
0.00012286873016223193601
0.00012250869645601700306
0.00012216756519157681961
0.00012186028075101915525
0.00012158531014494348196
0.00012132548504751244434
0.00012106066442228473801
0.00012078042352309572292
0.00012048747007481610876
0.00012019159416948705071
0.00011990013316704909796
0.00011961342580844729381
0.00011932880065466841242
0.00011904756562028430693
0.00011877776581167277488
0.00011852983002533487079
0.00011830640345969477311
0.00015799975334479865528
0.00015700936847056748066
0.00015616157085143405974
0.00015537396897954868966
0.00015454550817456489276
0.00015365186487283988628
0.00015274864490923565556
0.00012607717393906409933
0.00012571776080821887704
0.00012533717373164983064
0.00012492546918487209347
0.00012448843836774771887
0.00012404421715001378418
0.00012361135397419653159
0.00012319490906078289436
0.00012278350156281326146
0.00012236011788315919466
0.00012192057496646625477
0.00012147960120385653505
0.00012106319952582262462
0.00012068943864438192142
0.00012035529932195535984
0.00012004034310197614734
0.00011972417675668964201
0.00011940480750789516989
0.00011909879821822818625
0.00011882646485675922294
0.00011859378115514844065
0.00011838719140541387436
0.00011818127934059550783
0.00011795562774483990607
0.00011770752992501015341
0.00011744839748454265335
0.00011719372951822569582
0.00011695247784973405319
0.00011672434860777390316
0.00011650603135452352287
0.00011629918388179170279
0.00011611070197597729006
0.00011594494030089662101
0.00011579570048663249667
0.00011564527615596984476
1.4382430813819716773e-07
1.4376316837918230818e-07
1.4368019007518627192e-07
1.4361039279132337135e-07
1.4353585224354080703e-07
1.4354306819003209201e-07
1.4356413477680397388e-07
1.4371782232380347026e-07
1.4389651658827663665e-07
1.4388960795982616119e-07
1.4394182761120337135e-07
1.1273648543366464522e-06
1.1439589448744735477e-06
1.1541089776673509457e-06
1.1572955427772129165e-06
1.1560701773657430647e-06
1.1501146345227969355e-06
1.1443782796974324083e-06
1.1449037255741425438e-06
1.1612418314769411832e-06
1.2381927257289421915e-06
1.3513357380109003881e-06
1.4116931653442094703e-06
1.4314620887353337449e-06
1.4317086347106936455e-06
1.4222328038960450273e-06
1.3857225604254293045e-06
1.3478461346233725153e-06
1.3283570048544908101e-06
1.32162867225368786e-06
1.3207302645417101804e-06
1.3262619484399031114e-06
1.3561619110069829784e-06
1.4038495371513034065e-06
1.4324236026507765794e-06
1.4430964098719882271e-06
1.4430677654709948504e-06
1.4349540154552971242e-06
1.3979149454568500723e-06
1.3491062690258206416e-06
1.3239340800660364894e-06
1.3173778060315969133e-06
1.3196915521880418425e-06
1.3431006257278843632e-06
1.4171471255639468147e-06
1.4803945736374873213e-06
1.512102275805027301e-06
1.5251275181948225495e-07
1.5210911090759260449e-07
1.5175519749590713655e-07
1.5147107512351090427e-07
1.5127944166010053064e-07
1.5117269697169037137e-07
1.5109861452791717343e-07
1.5104723167042901965e-07
1.5097708191227607551e-07
1.5087089756472708169e-07
1.5072193643154650219e-07
1.5057525460377525408e-07
1.50444527119371797e-07
1.5033988645439200738e-07
1.5026069405817784889e-07
1.502748260760644766e-07
1.5030946351496160617e-07
1.5041113117619127843e-07
1.5052257811204470606e-07
1.5048148119104770597e-07
1.5042699844153439335e-07
1.1288138414498122058e-06
1.1549750535884528313e-06
1.1707683208423769541e-06