/*--------------------------------*- C++ -*----------------------------------*\
  =========                 |
  \\      /  F ield         | OpenFOAM: The Open Source CFD Toolbox
   \\    /   O peration     | Website:  https://openfoam.org
    \\  /    A nd           | Version:  12
     \\/     M anipulation  |
\*---------------------------------------------------------------------------*/
FoamFile
{
    format      ascii;
    class       volScalarField;
    location    "0.01";
    object      k_0;
}
// * * * * * * * * * * * * * * * * * * * * * * * * * * * * * * * * * * * * * //

dimensions      [0 2 -2 0 0 0 0];

internalField   nonuniform List<scalar> 
106891
(
0.025422158362562903566
0.025408180378305951497
0.025381783780410484275
0.025367688265855399543
0.025340762183578790373
0.025326574722205869028
0.025299626994761216514
0.025285661295045655517
0.025258811418746557331
0.025245633890911497316
0.025212355497180496955
0.018933945153187990706
0.019202625640232118265
0.019508437271027436605
0.019839223761420287512
0.020173086149650916454
0.020493212809073357156
0.020795125178677910383
0.021080844859036877714
0.021337345975771682821
0.021542864175650027619
0.021672687678760245433
0.021725347008203037963
0.021729343267317961091
0.021707792573376426259
0.021603931441873901881
0.021321065804787733139
0.021058397892640537408
0.020877350015856412785
0.020767684809160403409
0.020712350122336960906
0.02069479824906902965
0.0206968498443298142
0.020727850321494760422
0.020870571573451311698
0.02135979540003209165
0.022067763474753566977
0.022660662054290202361
0.02312500834093765556
0.023471922866437847782
0.023721124094889658313
0.023895856719084201947
0.024011064944250998937
0.024075504947669898459
0.024101945407649896097
0.024105463287203879319
0.024095173540944626878
0.024033076838369679673
0.023792210401804320119
0.026907503420545316603
0.026881420008500026692
0.026868088414296522476
0.026841721842627192657
0.026827652766418273039
0.026800339732954450017
0.026785105773551198816
0.026756274416587132875
0.026740650749453243745
0.026711031517339785257
0.026695096349198241259
0.026665088891427480428
0.026649064053890687137
0.026618940747629028787
0.026603036892124194007
0.026572767464497583367
0.026557115713977459681
0.026526746643488235272
0.026511814980069717956
0.026473913584546555217
0.020463819098897755716
0.020883166552675434813
0.021265207958051594167
0.02159087991394413597
0.021857043978954871638
0.02207515522435650468
0.022261729039886341691
0.022419545856656380306
0.022539618564366439846
0.022611599021958913441
0.02263640070216964284
0.02263546299888491431
0.022610419592149450657
0.022506466426092580635
0.022227762408640744374
0.021955831381405683383
0.021756527147851850018
0.021625120473596163434
0.02155372370956871661
0.021527080311142497704
0.021526796932172666266
0.021552150984282366503
0.021681510474445431919
0.022137252396816367583
0.022822392621815641017
0.023407806413334699552
0.023899687732597416079
0.024314665764727422942
0.024672618643397332266
0.024978541444695946672
0.025225109130010005265
0.025399846304556192994
0.025498308861978111195
0.025534681425077782047
0.025536617134342583235
0.025511448049412271954
0.02828369502918434697
0.02825443733156237161
0.028239458168179087244
0.028210050875995668768
0.028194472729288558299
0.028164218804891578279
0.028147710643566848515
0.028115945031952128269
0.028098669892364317585
0.028065702932197501146
0.028047911707690390687
0.028014377012750422274
0.02799635930939878975
0.027962745080846816009
0.027945007114641314677
0.027911432016804453571
0.027894178035163943313
0.0278604382274805773
0.027843827957390002159
0.027801377188626626852
0.021342400154882576468
0.021706684301981755969
0.022061415410359962175
0.022404813073337404711
0.022740165356213374453
0.023063118077233480535
0.023363462219208607634
0.023617342313656732034
0.023795971061089386117
0.02389024375567379288
0.02391445302041878343
0.023907910102657851936
0.023852025413419488536
0.023627577407161433343
0.023246103233132326543
0.022962887016324581846
0.022790795179438959328
0.022708420023095761409
0.022688580799506277014
0.022696182482518818813
0.022760728624530955633
0.023029344068938729928
0.02361188249764675437
0.024139711639217270589
0.024579786558011674363
0.024945750784813893602
0.025278007010612633942
0.025613167344631211642
0.025970206138633808446
0.026336433295102493896
0.026678531212097848085
0.026952135935968925956
0.027127201391582915491
0.027204757570138349276
0.027218347939928316109
0.027198177631254292358
0.029704518233767521901
0.029687454614411187132
0.029654314150662004768
0.029636931253281911108
0.029603424563767830741
0.029585357593656467362
0.02955047306110609312
0.029531487510333277735
0.029495109623062010229
0.029475324960123682611
0.029437990360753243935
0.029417855908754158428
0.029380566245597549563
0.029361010551863679641
0.029324132883013557388
0.029305237625628081932
0.029268058272299085631
0.029249858277331872852
0.029202997315007715728
0.021902545116572202238
0.022248962957136200758
0.022666226059619539596
0.023147596569727112159
0.023673054708687135683
0.024202485773088592419
0.024684439357949103377
0.02506583746813518046
0.025310404246049921645
0.025423942508580585353
0.025446352147680109668
0.025433888618629694328
0.025354669613615352791
0.025059525876403438566
0.024652806710741242968
0.024369225567022860524
0.024207090152787050924
0.024139094647685047784
0.024129510207003285888
0.024150732766267880153
0.024274693891785555089
0.024632340322083876027
0.024995418490690705232
0.025300626695000275751
0.02558920960145509918
0.025896332438621629674
0.026261637610840837115
0.026700887439791997496
0.027200495767881211623
0.027713104462603364159
0.028177941592301219975
0.028535265576841169211
0.028753338876471294661
0.028842871410048848135
0.031264481996068980985
0.031227521035735526789
0.031208021845831879215
0.031171190428890334367
0.031151683068450352482
0.03111475109768593178
0.031094726884773857961
0.03105666801271168842
0.031035766887494369015
0.030995898709716779296
0.0309737954214889602
0.030932870498216320093
0.030910880908587297367
0.030870206054491686198
0.030849041741915501913
0.030808810953421195133
0.03078841295530765701
0.030748040395485305015
0.030728389648328999911
0.030677308886378408526
0.023834976682180635671
0.02433025289137830463
0.024729000186037821546
0.025067621029920387349
0.025383306550850272959
0.025700852512455095444
0.026016489617240620008
0.026304124715758350067
0.026527033123711376422
0.026661842408898760171
0.026714522637763062074
0.026717528603074434945
0.026699152688216650636
0.026607112352078122336
0.026303542054474795403
0.025940233370311198413
0.025682311294209260455
0.025528034406909289045
0.025459691285311735615
0.025447514273740329954
0.025460811993585769075
0.025544356222874282231
0.025861345070989388839
0.026426810006938084019
0.026936053691575669727
0.027376408764826970499
0.027771527588149623467
0.028152522284734058516
0.028536804338413136739
0.02891357482290173378
0.029257171392530589848
0.029529602395776417129
0.029706179849813999644
0.032835177720742916851
0.032812616907172333092
0.032771427943593063603
0.032748815052350450927
0.03270813288764268939
0.032685449632632139483
0.032643635142240258473
0.032620059140940849129
0.032576417362716540704
0.032551971207653844498
0.032507431560619332034
0.03248363092318083678
0.03243963036579491227
0.03241713401847522158
0.032373875502447795049
0.032352099841228443289
0.032308418326352575378
0.032287184596572440776
0.032232685127061004582
0.026506473933957018507
0.026798174382104862634
0.027009253648994348274
0.027171385622903419105
0.027303602338347075784
0.027417351962422745193
0.027505665090983184851
0.02756301637975018537
0.027585954935907711777
0.027585167348034664303
0.027571248292875390196
0.027509031508616634681
0.027285284863235025055
0.026945601598302976187
0.0266956414135427339
0.026546431566255926371
0.026486121594255170736
0.026479157979673987461
0.026503005834331291174
0.026640357599740528
0.027154869980754670067
0.027984560009114638202
0.028677705947090872257
0.029216287728024679243
0.029618435339652939703
0.029918665533979562493
0.030156457683239767942
0.030362731291275160683
0.030555640445198251759
0.03073343563871210396
0.030876640015996825728
0.030963003599794192838
0.034525789067848075553
0.034499645094776945631
0.034453857194924483731
0.034427955027414573752
0.034382896669202890616
0.034357212391819783037
0.034311173764919558615
0.034284633414328559431
0.034237098968566456736
0.03421027745343364207
0.034162453392487274195
0.034137254949356696243
0.034090606771692504029
0.034066892406448369413
0.034020696974944718283
0.033997663846096710938
0.033950811029556500487
0.033928044519682086511
0.033872090240560051577
0.027746175090325835011
0.028087782758630410601
0.028393889242539847861
0.028654687944062805227
0.028861858064847981803
0.029001778812697297238
0.029078467199870953325
0.029101637657612533516
0.02909751326109612235
0.029067079598569120491
0.028940611724902389618
0.028582358332994741573
0.028242723847536167076
0.028026924057000912605
0.027925685115314197865
0.02790367728219503296
0.027917515841254486597
0.028015581902367314021
0.028395146936573599505
0.028976857685564259837
0.02944934651069212872
0.029827228866810183427
0.030147522945913433901
0.030458546388374609787
0.030800482632757902185
0.031199936900943255058
0.031650631788841629422
0.032112189174393790392
0.032516234919951779447
0.032806726626759291632
0.036298731390660303464
0.036247730232865447986
0.036218241728893950382
0.036168302750903318088
0.036139482662991183337
0.036088989212741222345
0.036059833691336660999
0.036008664713780225153
0.035979926306671086711
0.035929129463773107345
0.035902545349123418661
0.03585309807395755527
0.035828183130022596414
0.035779201755807905905
0.035754851167101787957
0.035704759688994669453
0.035680441161108862602
0.035622257868804303726
0.029121555529909189802
0.029472382886796519991
0.029799663560076707775
0.030079233755063730649
0.030286717555150874381
0.030410823388192783495
0.030463450124441227712
0.03046878079356837854
0.030458047917094516893
0.030406084456072020317
0.030204760341550354608
0.029826255750223611835
0.02954276070830097467
0.029375030317067257757
0.029310768434374728092
0.0293057473842174461
0.029334969992355155316
0.029489689927470984915
0.029938267737366693055
0.030387658836908575111
0.030723406215312568102
0.030973323670487405701
0.031181369348807795594
0.031404596760984192227
0.031703259785741927379
0.03213126013486961724
0.03269600907634347825
0.033345097722522788752
0.038321932813492463887
0.03826708958246902853
0.038234699245177763971
0.038181155115479759043
0.038149912902164635764
0.038096676794456073301
0.038066020696195711215
0.038012768895205044373
0.037982781850470964669
0.037930461479423839555
0.037902909307445914466
0.037851974400653340402
0.037826373468406823686
0.037775839530817402478
0.037750364207962544549
0.037697939918693683381
0.037672372901747408491
0.037617226668762743236
0.029899964435073377728
0.030188277278426055988
0.030524630779299091049
0.030873230566130061003
0.031188561960861050509
0.031424355313364897568
0.03155919506580680961
0.031603462396303926008
0.031600278737269178742
0.031557859037140569003
0.031371399326167240251
0.031094422562779399505
0.030937807037115599984
0.03089164828578757141
0.030898351970675270312
0.030978352948336316391
0.031331428148079265572
0.031983498751001294969
0.032471201638225019592
0.032777400889813998464
0.032933512108690998765
0.032986047986916393338
0.032991873832411929002
0.032982287868942326836
0.032972911073337315968
0.03298437337290892335
0.033085746353587665303
0.039830849301346102354
0.039770854622799077516
0.039724919683732047571
0.039667314061499002464
0.039621307882368041187
0.039564515923617871174
0.039519408701881468537
0.039462019654143178082
0.039418319479094243718
0.039363292164860189115
0.039320098486301309493
0.039267480186053888014
0.039224159929175425598
0.03917068419154709491
0.039126432109324871256
0.039070946750671055325
0.039027075056063634251
0.029486280245573516512
0.029271680296059903598
0.029209449143261113219
0.029216291781866465804
0.029305509474389732777
0.029703910557990358815
0.030736148645765480614
0.031678934455717247531
0.032324308700644739656
0.03268715580369825624
0.032835962327052228837
0.032863257565038293817
0.03285268048037916222
0.032809693679401466526
0.032792384057461959612
0.032800801362506855352
0.03286815300519466132
0.033036287692979927899
0.033135364479091426737
0.033164425341463334151
0.033156856192879217982
0.033067325730929686411
0.032684671949079965869
0.032125249851680692803
0.031744389156777269578
0.031547994086029214345
0.031489973260866666038
0.039844699089536347869
0.039801957272104365737
0.03972381642961960585
0.039682337897147715311
0.039604180256751130018
0.039562477625895424438
0.039484244412064391228
0.039443638436217093313
0.039365280946181128996
0.03932606665659257178
0.039248511647227486698
0.039209869873742031476
0.039131680113549303923
0.039092282523113815185
0.038991670850499128564
0.039005631861376142966
0.024639802831443041731
0.024398605810062760219
0.024289314183155493593
0.024258832305913920202
0.024261455181206210974
0.024294207737042442657
0.024440060731269506317
0.024957671469900150757
0.026143272835115995839
0.027301574149962249544
0.028251110508325384674
0.028938354674585522325
0.029365908404470286719
0.029586595062011326884
0.029669223299341934696
0.02968690017275501386
0.029683190170399036817
0.029647751508073031529
0.029497880890640884588
0.029007819299894085918
0.028303910964624118263
0.027690844319417727559
0.027198641515066547536
0.02681612478195569485
0.02654149026005671666
0.026371341767134879458
0.026293851943068772409
0.02627629485690342534
0.032107068657048563887
0.032040655652931793185
0.032005067681814373948
0.031939189343315271818
0.031904161432152675082
0.031838593522506113132
0.031804613558442447474
0.031738796647254576
0.031705949838225791493
0.031640063730142137244
0.031606677503086495762
0.03153925493136982422
0.031504759943160223767
0.031418277358576218727
0.031445017717325024487
0.023680658941337796169
0.023595685029744843664
0.023575799786210920733
0.02358016758757614656
0.023612344007926236444
0.02373109897692620221
0.023998806470835343935
0.024321624543837183641
0.024691980005948160892
0.025088209056208121694
0.025480520924709273989
0.02585021127857382861
0.026184455935966081258
0.026471522496408283337
0.026696559263440590437
0.026841757701388954671
0.026906818589751631959
0.026922008612195125199
0.026918491973945409684
0.026892080820053610585
0.026797644061481853267
0.026540363127305278274
0.026239975501892044002
0.025973988423131987718
0.02576642474702025426
0.02563610125943277529
0.025580255780927742271
0.030062498749393484765
0.030032487186155320397
0.029977888492053902242
0.029948454654066113123
0.029894028028741276293
0.029865691946362644266
0.029811143221344326565
0.029783423144153144124
0.029728582276405249307
0.029700695940403441797
0.029644735638344871936
0.029616113286794667342
0.029547285362973560452
0.029542117663846536452
0.022487693798229464737
0.022502928932323008893
0.022591289120658619022
0.022862127454644474295
0.023112022226980867556
0.023268811258934006536
0.023379144349629718547
0.023498646603465182109
0.023666389808801945038
0.023906282509658340757
0.024218167127441361797
0.02457972063087689521
0.024944619046423435749
0.025260537064832732507
0.025481807778119782565
0.025596160371862606425
0.025629567000045577058
0.025627195691209306988
0.025588632016453848744
0.02542271053030758024
0.025117816044513754936
0.024870086920689548488
0.024691763260525585733
0.024581184217408891951
0.024527750158867805269
0.024514327526081090836
0.02896345247799719802
0.028912054140980171513
0.028884477451765696449
0.02883324119909180111
0.028806582262993579019
0.028755292803114819444
0.028729016780726365082
0.028677331135747219371
0.028650922379236731102
0.028598052137886333102
0.028570874073096986373
0.028508688924795876074
0.02849811385316990478
0.021889237387664375184
0.022072051679238122862
0.022231181312324304472
0.022381195595892779127
0.022532101065933667072
0.022691988741232592408
0.022862466188348237739
0.023042263658937984366
0.023231447230673996085
0.023434769475520155629
0.023649054947070015376
0.023856363132118228038
0.024029454114338051618
0.024142204866820317355
0.024189824475893881989
0.024196427577632760586
0.024183718091087824664
0.024113140503625795502
0.023910062617070355906
0.023720002424334918345
0.023596529074203877185
0.023529420305675615571
0.023505283947004299711
0.023504443812664248259
0.023537126406572690673
0.027818266767558479796
0.027792089154422262159
0.027742819463993994428
0.027717359984822772384
0.027668003446056698563
0.027642493590223717742
0.027592648530689996289
0.027567141777870774605
0.027516167761153141613
0.027489957728369377593
0.027430014368943114733
0.027419942371531124542
0.021182262085408777585
0.021355135254982459542
0.021546285806155064668
0.021761900126757029172
0.021994468910001868656
0.022222869213204973771
0.022425351595418214351
0.022589187147088442276
0.022719742723020696501
0.022828161675201470715
0.022922132486306631693
0.022996420531305676593
0.023041241995265374087
0.023056996286418197928
0.023055792975734092781
0.023039818612200578529
0.022970311835432716263
0.022800620802900205264
0.022654442293187224827
0.022558033403154383045
0.022505002216033621193
0.022486023865959808149
0.022485297077275884919
0.022509849714137747378
0.020357891207236373382
0.02071705782675043947
0.021066098506396520318
0.021400557954093898244
0.021695400072823035897
0.021926999083510943789
0.02208276743497096517
0.02217805509351400417
0.022237299525089695984
0.022284555073549743714
0.022322330465705052249
0.022343861494891734815
0.022348711257527551638
0.022343461427006418296
0.022312075262625099409
0.022188664605621192388
0.021970928236055987937
0.021805169902823048206
0.021702083128687613134
0.021650369337602493741
0.021634881409336132602
0.021637064025101234582
0.021671509345434082638
0.020087751734186063551
0.02039069252491081119
0.020701297056399590307
0.020975327240012147517
0.021181276423001584031
0.021309783998779297659
0.021378289305196133963
0.02141092650859238028
0.021424693966677843537
0.021428630321126015262
0.021427079813847615952
0.021413534466634385339
0.021355407714351352239
0.021178752489765504535
0.020989647350161767803
0.020859931037105049895
0.020785849313969231161
0.020754790863030808667
0.020749528089900801803
0.020759680880810874731
0.020827166460936002296
0.020545127023044881809
0.020675687923670152402
0.020722271905057890184
0.020728093129932245037
0.020722831431406355668
0.020699390981540097267
0.020631875019696023499
0.020536753933794206495
0.020436662319815807054
0.020339097984956557713
0.020252998760655123445
0.020186532014431313869
0.020144662178815234133
0.020124205426553517378
0.020119717086435489478
0.020125359879523119916
0.020167567367676986906
0.020213413279027286906
0.020222402046819330096
0.02022424837460947214
0.02022322378019637823
0.020217548561284801739
0.020202015201220779872
0.020160503594544815914
0.020047658422433386333
0.019910372719303334743
0.019791892808277530141
0.019706542322743835632
0.019658163998963036623
0.019641907803296984603
0.019551775222427136142
0.019641534617626705411
0.019676363270716059478
0.019678542244583124843
0.019662809927036336427
0.019585929898111049258
0.019382772840351000093
0.019197944903029597052
0.0190630299296019462
0.018973657966654785406
0.018923944249634672143
0.018903946548975536501
0.010531431646371398198
0.010511514156992462013
0.010518873060082587975
0.010580902473923377641
0.010849355859859591278
0.011785433777427996652
0.013051219238080159074
0.013916081308193821442
0.01437966824065025663
0.014540928058391416541
0.014557908846695293351
0.014514362137472652456
0.014287983999255850567
0.013577873749369471709
0.012762196510055393711
0.012120653593404685094
0.011639267192732094189
0.011293623811703627086
0.011060506738314972858
0.010920268103674947435
0.025477229988259311733
0.025398804453990852376
0.025389321288009292915
0.025428666836573764198
0.025624660871761455183
0.026327600132378423808
0.028205686592665129425
0.029971047887772429147
0.031081141551868717021
0.031579583741785259565
0.031692628386560305065
0.031666572342247567562
0.031452551591608722548
0.030637666126005394518
0.028926555010699253612
0.027426057083187970614
0.02628916619662890336
0.025504242535871659431
0.02502620897500840505
0.024785084705808299588
0.024696215511992747338
0.024683293053297205438
0.087058303812049084303
0.087142839624815199295
0.087273282613390859574
0.087566602302279084036
0.088237741252116461133
0.090043202691850107722
0.093976755342645088009
0.097589398566901852661
0.10005325538830410481
0.10123501983864284515
0.10157834938070169073
0.10157757479174744919
0.10127812933951337027
0.10005136090334897092
0.097389338119174106989
0.095092763861099147138
0.093551352281856250959
0.092793058176808954074
0.092517917168906366188
0.092456365018773231657
0.092499929991215493197
0.092744942383419834431
0.09340068325492149881
0.095063410790998947864
0.098216137859692076439
0.1017657066463402149
0.45832129197083759653
0.46097350426625377517
0.465449650928775438
0.47294257847648824011
0.4836004552435403947
0.49597400764928267769
0.50839760920107091025
0.51834352078878254133
0.52468236373794963079
0.52731825375646423915
0.52791375406454221775
0.52758213354780369997
0.52515565029958277687
0.52035458330781236835
0.51739832035577693059
0.51615438809243752161
0.51599509748899829997
0.51634747909645972719
0.51797349606499720753
0.52340613650195388917
0.53231761022208246015
0.54200780650661439797
0.55298874602765935027
0.56509287958326803736
0.57773238184144504181
0.5899507131203156618
0.60043257609613809311
0.60832578779728019303
1.9968128831198479478
2.0043292675457800023
2.0142309716775930184
2.0271255486568526827
2.0419100560819511969
2.0570466587471347708
2.0695726355221837345
2.077806674570040979
2.0813676304929296101
2.082098611757225548
2.0813037980339377242
2.0769858731981072353
2.0713547788851021103
2.0681632382866190767
2.0670390695736382547
2.0674109448260078459
2.0697544592622421078
2.07744535457495072
2.0874826234288552662
2.0969962131190142962
2.1064623794454302441
2.1158363817381826699
2.1246967169293573541
2.1322960927540424159
2.1381029962477375861
2.1416101268030161009
2.1427866106104231925
2.142716805728372087
2.142018223543222355
2.139610500534562032
4.3429600410582800407
4.3337856606318592156
4.3248068680396860586
4.3152202384123192758
4.304136501393067249
4.2909604206753586553
4.2756627143849632589
4.2587722252148338953
4.2412002710463925226
4.2240190971406743614
4.2081790150140117035
4.194358338790927121
4.1828711976923758087
4.1735824435910400254
4.1658683670879037564
4.1587977855570663621
4.1513919682849440562
4.1429566519671610081
4.1331884079970864221
4.1221510897918394178
4.1100664828345552237
4.0970597446131149511
4.0829794266015930759
4.067640082121768863
4.0509459775596816655
4.0331179134259915742
4.0146840201583735563
3.9963471078572485595
3.9788096404598900513
3.96255272911580958
3.9478290376894515923
3.9346648672204116437
5.950590872400068676
5.9220059397645359311
5.8937405570753735873
5.8654269900131703608
5.8368857982847126564
5.8082749477986537201
5.7799912333441669787
5.7523644625703544975
5.7254389812152632899
5.6989893443488437441
5.6727127731352950946
5.6465355566448609537
5.6206667671319410218
5.5953688897589524132
5.5707024905580340146
5.5464144302534359454
5.5220684611771018169
5.4974240109981531432
5.4726102260220699236
5.4480204615663883061
5.4240614608914361483
5.4009026612131050271
5.3783712809383450448
5.3561971954878995206
5.3341968511495228
5.3124129818459921992
5.2910413046344695331
5.2702696137250857333
5.250084052613912533
5.2303268632811779071
5.2108813420439394903
5.1917759810625145889
5.1731277194589404544
10.196704315213994008
10.092833713488275293
9.994349658552712512
9.8978919144114385631
9.8009489352076197832
9.7038329057295769076
6.8087087944648434501
6.7747208373489415933
6.7413013359879121467
6.7080225709161531711
6.6747230511416786314
6.6416313341869610554
6.609187368472542623
6.577686317003931471
6.5470518049068111566
6.5168967486023916535
6.4868615737587234094
6.4569398232199990417
6.4275519070453297488
6.3991676416164908758
6.3719616673533341356
6.3456212064704224929
6.3196217149209257258
6.2936854201791634367
6.2680047736662309887
6.2431375351930284978
6.2195186306441829771
6.1971238276402651479
6.1755286585278259537
6.1542080355088399912
6.1328454026212417816
6.1114970640358645682
6.0904273469889336212
6.0698392234147275914
6.0497464790655381961
6.0300639792794381577
6.0107762924637189172
5.9920322254823776831
5.974095239812792002
5.9570151762672702844
9.67281870947083533
9.5739801357629836787
9.4836566826256945006
9.3960537700837605257
9.3072255618360593132
9.2180952555309456642
9.132258546519114617
6.6641145118527651547
6.6317548369894598892
6.5974596731820334128
6.5614008243138677301
6.5245228678700275537
6.4879798516919002793
6.4523969207486429056
6.4175723511480731176
6.3828510755975829127
6.3479317835779909274
6.313489313793800406
6.2808220528280678252
6.2510469319032706537
6.2243051037495318312
6.1997107588335023109
6.1760783330828266102
6.1528627190353741838
6.1305363805850570103
6.1100387309586379203
6.0918519432731574881
6.0754930558049879963
6.05973665701166464
6.0433251381171038119
6.0257335003798093709
6.0074126041456734626
5.9892699529991988427
5.9721280602797204295
5.9563425145320394449
5.941887460654259101
5.9286554304372440782
5.9166807799674687729
5.9059628042133800463
5.8961231257672688244
5.8863209187561533753
5.8755732270877540913
4.625471137270432872e-06
4.6276601652269446814e-06
4.6285724016764567923e-06
4.6304942338235723681e-06
4.6322401731445430212e-06
4.6394350287619760242e-06
4.6476205872726755901e-06
4.6645543780443782616e-06
4.6831929177111281416e-06
4.6898155424341461266e-06
4.7003404577450893863e-06
0.00017873320935685144649
0.0001842780310058365022
0.00018782036047958555421
0.00018913387070753032051
0.00018902287158734109879
0.00018737700071065366845
0.00018580695066113306932
0.00018625848980383151801
0.00019187390474426782388
0.00021840532327702588331
0.00026041935829615957525
0.00028450024484036573165
0.00029286695796941844289
0.00029337132168176348205
0.00028995728433364888589
0.00027572823459718872122
0.00026131045617952877985
0.00025424013398108363847
0.00025209687965159287932
0.00025218747962496318882
0.00025475351851781888324
0.00026684088383548950968
0.00028642090603462884522
0.00029865959488424147781
0.00030354697067100464437
0.00030392275656849484589
0.0003008919468563601529
0.00028592823797403708668
0.00026667210363915679712
0.00025717635917794196519
0.00025499832550840130724
0.00025624945215068473765
0.00026576770318333841269
0.00029623952574734193667
0.00032364151132252105391
0.00033803165649011669312
4.8777495208000674768e-06
4.8585387454445427843e-06
4.8424038142261807414e-06
4.8306372624750082718e-06
4.8246996111210182598e-06
4.8241247650827611028e-06
4.8256066990998794386e-06
4.8285382952403499594e-06
4.8303001593344454425e-06
4.8298139809867639554e-06
4.8266694594078566913e-06
4.8237748824460784959e-06
4.8220034201160264387e-06
4.8220205571816501179e-06
4.823742677007617146e-06
4.8315608583446802943e-06
4.8407269533063946082e-06
4.8543053991187549141e-06
4.8685447764771589232e-06
4.8729700305282111175e-06
4.8765930465112974682e-06
0.00017029700087993528417
0.00017850323446888413615
0.00018363719495163082439
0.00018560050304199947921
0.00018564980124679032205
0.00018439974134181253058
0.00018301370010121524568
0.0001834195082038246041
0.00018833530892931881775
0.00021170678572686167543
0.00025538621454788555838
0.00028347771889792011245
0.00029562470633669749248
0.00029805252908212239099
0.00029693617585356541074
0.0002894312535546326808
0.00027129609984453961768
0.00025827371901784531606
0.00025153053250209306485
0.00024927676182180614952
0.00024919706954762362071
0.00025075888995908522704
0.0002583506401470409713
0.00026979895659652705555
0.00027605248711410452448
0.00027766021610267849814
0.00027697035937162308968
0.00027138279892967558798
0.00026065292719649812503
0.00025579368127777235087
0.00025539903718868790534
0.00025849966977188767016
0.00027509683551290588753
0.00030930540381743501033
0.00033292809192610699339
0.00034455502360659939244
5.1157785743534183522e-06
5.0977073682461189352e-06
5.0869080668012793902e-06
5.0802134126642170084e-06
5.0741992230836655621e-06
5.0713151522756490399e-06
5.069104976964024013e-06
5.0651480402385589883e-06
5.0570917121153386158e-06
5.0485648695237253137e-06
5.0414652872806422403e-06
5.0379111948048196066e-06
5.0361521464397464759e-06
5.0363477290788538811e-06
5.0389812714071897937e-06
5.0498798954269115362e-06
5.0612605045891859748e-06
5.0714857294308778954e-06
5.0783142936695230171e-06
5.0792032909882226224e-06
5.0753740640754245548e-06
0.00017954653279225426307
0.00018776293788998785032
0.000191477843701833776
0.00019218977870608290473
0.00019159376185436528643
0.00018989036074574234636
0.00018974822807189277896
0.00019181948799676149073
0.00020373451572053798207
0.00023305927035645695425
0.00025397881663876434267
0.00026366129932377582994
0.00026601114481378734323
0.00026562265719015458985
0.00026183359756728563725
0.00024899640817208871114
0.0002365119645354963533
0.00022940981610020247036
0.00022658269203703257149
0.00022622525473991433984
0.00022731762980531547641
0.0002338448806033633471
0.00025054591797178736405
0.00026277428933284106708
0.0002682462418484787771
0.0002691747951883103891
0.00026824614993809631474
0.00026515940860955575058
0.0002642357733071916989
0.00026559110665464526506
0.0002755966489064028092
0.00031414954492205236346
0.00036003280069927455454
0.00038604720787917295348
5.3849244972845498408e-06
5.3767449875954585975e-06
5.3742452976000369003e-06
5.3729707035395330727e-06
5.3696541564209005759e-06
5.3603893003628588564e-06
5.3448832126530716589e-06
5.3260362598161965479e-06
5.3097254572701176202e-06
5.2974435380720685842e-06