/*--------------------------------*- C++ -*----------------------------------*\
  =========                 |
  \\      /  F ield         | OpenFOAM: The Open Source CFD Toolbox
   \\    /   O peration     | Website:  https://openfoam.org
    \\  /    A nd           | Version:  12
     \\/     M anipulation  |
\*---------------------------------------------------------------------------*/
FoamFile
{
    format      ascii;
    class       volScalarField;
    location    "0.01";
    object      nut;
}
// * * * * * * * * * * * * * * * * * * * * * * * * * * * * * * * * * * * * * //

dimensions      [0 2 -1 0 0 0 0];

internalField   nonuniform List<scalar> 
106891
(
9.1652355806251668938e-06
9.1563550204393619279e-06
9.1452440746833714848e-06
9.1363566537957608614e-06
9.1251656384023232567e-06
9.1162751945370179151e-06
9.1050952678826144269e-06
9.0962587345244693207e-06
9.0851121927952934479e-06
9.0764326521318935167e-06
9.0641499482779052516e-06
1.0002038461954490707e-05
1.006572454356404752e-05
1.0138488033232319644e-05
1.0216982136272147628e-05
1.0295460931514160632e-05
1.0369652580587053486e-05
1.0438524745878869068e-05
1.0502710812029438721e-05
1.0559109516719262736e-05
1.0602534157698249756e-05
1.0627132487584896656e-05
1.0632722331947503416e-05
1.062635321284237143e-05
1.0613756666958224721e-05
1.058112653111067841e-05
1.0504450607717654643e-05
1.0432194139937530646e-05
1.0379951633598081417e-05
1.0345395779857078885e-05
1.0324382464851496505e-05
1.0312813936872357871e-05
1.0306150827459109782e-05
1.0306646344439069805e-05
1.0334685135842500785e-05
1.0447392850734786918e-05
1.0611833469142412445e-05
1.0746133916536417614e-05
1.0848286794379924898e-05
1.0921886823181320683e-05
1.0972177242668395379e-05
1.1004931324447940664e-05
1.102381871526042159e-05
1.1030976550006460943e-05
1.1029395643078836097e-05
1.1022552140848742007e-05
1.101256714485800759e-05
1.0990822265869437454e-05
1.0928283896089880433e-05
9.7350376244020366407e-06
9.7235598439540628439e-06
9.7143975100642467887e-06
9.7028883380681460626e-06
9.6936111803467195271e-06
9.6819506869567286425e-06
9.6724811350703596401e-06
9.6605646510298486804e-06
9.6510410773688890332e-06
9.6389998259367219388e-06
9.629435361751048365e-06
9.6173403511145634959e-06
9.6077744248703578184e-06
9.5956745197475335591e-06
9.5861452626676945516e-06
9.5740354352390259719e-06
9.5645672341579871233e-06
9.5524570372587612861e-06
9.5431352695811841249e-06
9.5296904316015205717e-06
1.0661100491571932385e-05
1.0762349092770042794e-05
1.0852872777394110586e-05
1.0928143846516923506e-05
1.0987723917194938808e-05
1.1034781335390950123e-05
1.1073642495505441334e-05
1.1105134062226544771e-05
1.1127142367562859959e-05
1.1137211455171725354e-05
1.1135628321814581719e-05
1.1127690670924124408e-05
1.1113863876174625423e-05
1.1080722122425800972e-05
1.1004380818477861814e-05
1.0929178154899615546e-05
1.0871823371613128191e-05
1.0831344277686393525e-05
1.0805886329474423174e-05
1.0791671141683554505e-05
1.0784093412283400325e-05
1.0782895116284400833e-05
1.0807504385522904349e-05
1.0912464488544638855e-05
1.1072421408430742313e-05
1.120587737663540836e-05
1.1315253296174358229e-05
1.1405223185637665265e-05
1.1480950666360865934e-05
1.1543942798696356112e-05
1.1592785815894893797e-05
1.1624861403641624212e-05
1.1639349582602498097e-05
1.1639605674566080116e-05
1.1631980300185684743e-05
1.1618224059831904223e-05
1.0240430259867541309e-05
1.0228022818191486755e-05
1.0218209548286921577e-05
1.020579632615915769e-05
1.0195894929065471199e-05
1.0183350222082177276e-05
1.0173300647834421459e-05
1.0160502935819402433e-05
1.0150332526868129652e-05
1.0137336002208567739e-05
1.0127088178224096212e-05
1.0114005882949421458e-05
1.0103732285391783699e-05
1.0090652199349334746e-05
1.0080444988243237591e-05
1.0067389820923035814e-05
1.0057287432037291874e-05
1.0044222219737503681e-05
1.0034254404070000488e-05
1.0019642358516669224e-05
1.1170786851367255381e-05
1.1257918212320267208e-05
1.1341674378049907386e-05
1.1421680542907500287e-05
1.1498859713497214274e-05
1.1572194722559871042e-05
1.1639243441320456935e-05
1.1694247543640337399e-05
1.1730325368348513255e-05
1.1745466794608924429e-05
1.1743316858542200855e-05
1.1733591411326506698e-05
1.1711828463210997446e-05
1.1648760605712919994e-05
1.1546284908808330093e-05
1.1467644191691921744e-05
1.1416543775500060257e-05
1.1387895342192268957e-05
1.1374973245189627568e-05
1.136895566989458954e-05
1.1377094632506906758e-05
1.1435713103554118194e-05
1.1571307707590332595e-05
1.1691924695959009996e-05
1.1789934459015707525e-05
1.1869208712735019673e-05
1.1939724893757791031e-05
1.2010267737389161011e-05
1.2085275848327317876e-05
1.2161744807322795334e-05
1.223202215140160748e-05
1.2286129974344984323e-05
1.2317504417493852024e-05
1.2326613270843947128e-05
1.2321167777258131788e-05
1.2308096026615158243e-05
1.0759914718065401445e-05
1.074935254321717359e-05
1.0735890652097422726e-05
1.0725292267954714175e-05
1.0711787803329559759e-05
1.0701087774340607866e-05
1.0687356292393552473e-05
1.0676509472257046364e-05
1.0662527118119381978e-05
1.0651552094857947686e-05
1.0637413700502623568e-05
1.0626390593522118405e-05
1.0612277277270394589e-05
1.0601375716980695856e-05
1.0587356500653921949e-05
1.0576594129464073123e-05
1.0562542459088869907e-05
1.0551925959889077515e-05
1.0536152851557649418e-05
1.1602739495408860801e-05
1.1685946974085721149e-05
1.1786752529201015763e-05
1.19029202262893366e-05
1.2028874032224475557e-05
1.2154217558796347325e-05
1.2266199375221150492e-05
1.2352152200124968183e-05
1.2403800128718011383e-05
1.2423084145504137164e-05
1.2419992353119320885e-05
1.2408363021458997067e-05
1.2380536378658352038e-05
1.229999444876944235e-05
1.2191217581112690521e-05
1.2112347605329216988e-05
1.2063489153007488333e-05
1.2038090993011044285e-05
1.202731121049897253e-05
1.2024197809560297046e-05
1.2046455333960709273e-05
1.2126257422597553129e-05
1.2206919191680410362e-05
1.2272747079403504932e-05
1.2333984779014335121e-05
1.2399136511864357731e-05
1.2477552224589099654e-05
1.2572666337018124062e-05
1.2680898805253008538e-05
1.2790960373964670735e-05
1.288890904092235634e-05
1.2961490268404224631e-05
1.3002021985272218399e-05
1.3013311201496032514e-05
1.1333767043471964855e-05
1.1319197322555594538e-05
1.1307803163228510968e-05
1.1293280793089614431e-05
1.1281908485902743684e-05
1.1267393126775762487e-05
1.1255950742450538237e-05
1.1241254866955859549e-05
1.1229674397254753217e-05
1.1214671224291014449e-05
1.1202889868464401075e-05
1.1187712205314234574e-05
1.1175966833874198655e-05
1.1160852417062801378e-05
1.1149274976267058466e-05
1.1134262814955345864e-05
1.1122846264794334525e-05
1.110783304482680219e-05
1.1096573950079068339e-05
1.1079654413808950029e-05
1.2418306034521201227e-05
1.2538072545192371459e-05
1.2631696442648000661e-05
1.2709085025865634e-05
1.2779976961013441778e-05
1.2850731953582113042e-05
1.292044463911478634e-05
1.2982711982588176998e-05
1.3028647276137686947e-05
1.3052739866735021276e-05
1.3056626611607094487e-05
1.3048315171349665522e-05
1.3034797403571765997e-05
1.3003396359232092863e-05
1.2920258282211427746e-05
1.2821725885205352314e-05
1.2748857621428001866e-05
1.2701585379151350471e-05
1.2675691894903593637e-05
1.2663827639291485829e-05
1.2658308642190035448e-05
1.2670123791798013928e-05
1.2739263545710673717e-05
1.2868835504826386915e-05
1.2983298322750335148e-05
1.307998332595902054e-05
1.3164931026486581086e-05
1.3245733604568769504e-05
1.3326571423957634923e-05
1.3404960396600783842e-05
1.3475059234084011363e-05
1.3528330757928134877e-05
1.3559391139221634937e-05
1.1908744131458570196e-05
1.1896384635162144547e-05
1.1880660517412818713e-05
1.1868315468961800974e-05
1.1852708994589086268e-05
1.1840375965582109117e-05
1.1824588715274316785e-05
1.1812115047477430974e-05
1.179601692553967317e-05
1.1783402502983549766e-05
1.1767159027271985129e-05
1.1754678104640386199e-05
1.1738552228469893718e-05
1.1726328570594545924e-05
1.1710362169888432557e-05
1.1698294387900564105e-05
1.1682278935228433217e-05
1.1670333322059627155e-05
1.1652390176431329892e-05
1.3427264600203808495e-05
1.3491647694856314025e-05
1.3535318180707337006e-05
1.3566482283102927888e-05
1.3590029448066589919e-05
1.3608884414785343381e-05
1.3621365791859051323e-05
1.3626141058226044653e-05
1.3622382828533770703e-05
1.3612740042541488159e-05
1.3599869747336268335e-05
1.3575155204861327247e-05
1.3510668586557527521e-05
1.341694230909421323e-05
1.334519197620449858e-05
1.3298504317493221478e-05
1.3274092541800283122e-05
1.326310417938005281e-05
1.325981274020912537e-05
1.3284682694527511954e-05
1.3402467337695992149e-05
1.3596284324507659932e-05
1.375425346105064264e-05
1.3873335534463253493e-05
1.3958925094567799281e-05
1.4019848044971258173e-05
1.4065734141311605563e-05
1.4103980541580712674e-05
1.41388986001677128e-05
1.4170144377073591504e-05
1.4193297307579853971e-05
1.4203323459902860571e-05
1.2529034575029193393e-05
1.251559370070993017e-05
1.2498601988606667949e-05
1.248522918706111217e-05
1.2468395706554547613e-05
1.2455087274425469498e-05
1.2438100356197202392e-05
1.2424657672432337055e-05
1.2407419509345703299e-05
1.2393943225575347584e-05
1.237667092763642044e-05
1.2363507506890597754e-05
1.2346471456177002019e-05
1.2333601622279105102e-05
1.2316676146028076425e-05
1.2303957761741667813e-05
1.2286944322369575399e-05
1.2274300204912183174e-05
1.2255667325819649414e-05
1.408509364292678836e-05
1.4161715921963385545e-05
1.4228820614071639147e-05
1.4284146295567634122e-05
1.4325811728063176271e-05
1.4350610824458613033e-05
1.4359672898876119711e-05
1.435546657561869024e-05
1.4344497726992040811e-05
1.4327074104032618064e-05
1.4286099093294423883e-05
1.4187717538864867657e-05
1.4093241378626102168e-05
1.402941729499339107e-05
1.3994229249570338093e-05
1.3978951179504527072e-05
1.3972675168696759761e-05
1.3987318931312960949e-05
1.4071566139158197138e-05
1.4205163094268425715e-05
1.4310680130168937092e-05
1.4392285898344690448e-05
1.4459346025847266069e-05
1.4523644273162822748e-05
1.4594761099811068807e-05
1.4678848234695035659e-05
1.4774193880474296701e-05
1.4871219171937416658e-05
1.4954183372972721774e-05
1.501053279596045083e-05
1.3171630278532662762e-05
1.3153236778658441823e-05
1.3138757537364331647e-05
1.3120581159118075706e-05
1.3106247293764558524e-05
1.3087994256036370122e-05
1.3073620508526586755e-05
1.3055265603602255695e-05
1.3040986574972760541e-05
1.3022719688648785847e-05
1.3008852681223171855e-05
1.2990856572788782503e-05
1.297731967478821862e-05
1.2959439675896574203e-05
1.294603588494218138e-05
1.2927989323602514076e-05
1.2914619205848085049e-05
1.2895136505522654236e-05
1.4794930865956523868e-05
1.4873459915166622761e-05
1.4945470986762452353e-05
1.5005065401786901107e-05
1.504637474339167229e-05
1.506680070042444556e-05
1.5069432690573543671e-05
1.5060311861255767712e-05
1.5047215164153214772e-05
1.5023990627899038705e-05
1.4964011655478004235e-05
1.4859613582338049504e-05
1.4778439345091026961e-05
1.4726076580648853162e-05
1.4699661434795114614e-05
1.4688167879732626204e-05
1.4685227978682541771e-05
1.4713448544468401107e-05
1.4814389146475283107e-05
1.4914939918828240973e-05
1.498680845828348181e-05
1.5037266189734134537e-05
1.5077233541139926297e-05
1.5120563374433622459e-05
1.5181643100532705488e-05
1.5273025464607430378e-05
1.5395846478792757914e-05
1.5537079006740738934e-05
1.3885678506257302829e-05
1.3866107959729871211e-05
1.3850615616935330946e-05
1.3831303432113597907e-05
1.3816041929787066717e-05
1.379680897232119714e-05
1.3781675575281422176e-05
1.3762462593544251798e-05
1.374747176343944095e-05
1.372845063831341301e-05
1.3713924888863640477e-05
1.3695183027212740078e-05
1.3681039827870593715e-05
1.3662404478140334924e-05
1.3648316694370552394e-05
1.3629375637731926184e-05
1.3615300434381520994e-05
1.3595897786481028256e-05
1.5370636331171400111e-05
1.5433781127611773972e-05
1.5508723752263613627e-05
1.5586223344315775505e-05
1.5654815526978555369e-05
1.5703080405581866334e-05
1.5725917979082813314e-05
1.5726086613835812001e-05
1.5714393083215786993e-05
1.5692998869061145146e-05
1.5635899070934917586e-05
1.5555830809673586488e-05
1.5505699318360633495e-05
1.5483282043259028425e-05
1.5474173059060139133e-05
1.5483289575651676271e-05
1.5559991661602139867e-05
1.5710206682003224915e-05
1.5818738613891213384e-05
1.5882299825313551337e-05
1.5909169031840847988e-05
1.5910887640255753602e-05
1.5901279286210575085e-05
1.5887948514475837248e-05
1.5874643918235678325e-05
1.5866340291901970413e-05
1.5879483923591135384e-05
1.4514449760995187886e-05
1.4493445232306431723e-05
1.4475013251564828045e-05
1.4454467885043926836e-05
1.4436047736932057994e-05
1.4415674787655941485e-05
1.4397444519441281958e-05
1.4376988792335630615e-05
1.4359039998356747949e-05
1.4339043156238569912e-05
1.4321215972083150804e-05
1.4301689692499037183e-05
1.4283873811503023773e-05
1.4264225839260462605e-05
1.4246274745101632575e-05
1.4226293203425897983e-05
1.4208440692480686965e-05
1.5672379868993443754e-05
1.5604194294733214041e-05
1.5576653086616651579e-05
1.5567616166208054395e-05
1.5580375261995377094e-05
1.5674446709310393679e-05
1.5932998069467343066e-05
1.6164667020063816109e-05
1.6317497361146655394e-05
1.639770659161794147e-05
1.6423747450922063918e-05
1.6419226609055714996e-05
1.6405201778611949498e-05
1.6383084694807040774e-05
1.6367342119360182953e-05
1.6358041463153123306e-05
1.6363339419508726768e-05
1.6393728144945347082e-05
1.6406996273929184266e-05
1.6402859167511119065e-05
1.6389645729438715561e-05
1.6356320501868514694e-05
1.6250558768173158346e-05
1.6099603921407331492e-05
1.599257431132164941e-05
1.5931768330926764766e-05
1.5905937193809802636e-05
1.4884102252758704828e-05
1.4865786343099058117e-05
1.4840872061683704506e-05
1.4822819444491879234e-05
1.4797930051105253241e-05
1.4779864464170492901e-05
1.4754988696988106969e-05
1.4737157559851563732e-05
1.471228706436838249e-05
1.4694744865142850949e-05
1.4670053666093804459e-05
1.4652648754912854758e-05
1.4627870917913752478e-05
1.4610355788744827454e-05
1.4581417854953769713e-05
1.4573905494366393574e-05
1.2471966779487498019e-05
1.2401991563336830281e-05
1.2365476691519107386e-05
1.2349080315202215475e-05
1.234116071976713489e-05
1.2340862705795410949e-05
1.2369056779427533844e-05
1.2490009158866171055e-05
1.2774025693253399154e-05
1.3045137714603527974e-05
1.3261124236340760725e-05
1.341241853065554653e-05
1.3501989654651912575e-05
1.3543377497463358157e-05
1.3552943550175850903e-05
1.3547594837984349177e-05
1.3537350704472506408e-05
1.3519930505919534677e-05
1.3476547466839321218e-05
1.3355289165330137268e-05
1.3183080699405661453e-05
1.3030378352562354527e-05
1.2904986273585181789e-05
1.2804921105002919519e-05
1.2730231366995896618e-05
1.2680444498207976256e-05
1.2652920828924880541e-05
1.263986399058748418e-05
1.1623176548673426771e-05
1.1603086456692593347e-05
1.1588587737993973027e-05
1.1568616386674782461e-05
1.155424319366610389e-05
1.1534351019812329517e-05
1.1520191956322949398e-05
1.1500276899430059786e-05
1.1486345090405087067e-05
1.1466439283811488386e-05
1.1452431243623462594e-05
1.143226796985976212e-05
1.1418080637674165337e-05
1.1394481727274267805e-05
1.1391414752656838522e-05
1.1985122381295082995e-05
1.1955195408877221811e-05
1.1941818672443602726e-05
1.1934623352578681106e-05
1.1934427507500336828e-05
1.1955945525081653161e-05
1.2014737441826747467e-05
1.2086845819145977156e-05
1.2170044519816976592e-05
1.2258792084200831438e-05
1.2345719212091784531e-05
1.2426357592188732123e-05
1.249778735334860507e-05
1.2557425652869180026e-05
1.2601993725883462781e-05
1.2627520802488736827e-05
1.2634104819867315671e-05
1.2628931682343240469e-05
1.2619353977387626057e-05
1.2604446334963099032e-05
1.2573676331136853635e-05
1.2504644381028173634e-05
1.2425024077222880238e-05
1.2353264183662174936e-05
1.2295192846340382862e-05
1.2255457970936088741e-05
1.2233526830725460825e-05
1.1024871452761433798e-05
1.101171636579654886e-05
1.0994064415138889363e-05
1.0981038028789636161e-05
1.0963440574276317333e-05
1.0950638669487986065e-05
1.0933041116297959766e-05
1.092037274629907093e-05
1.0902741167862917956e-05
1.0890060594604157392e-05
1.0872242095391722861e-05
1.0859444781710223866e-05
1.0839284940496200085e-05
1.0830809816094422738e-05
1.1448508507991298963e-05
1.1444403600561489244e-05
1.1458759126650499755e-05
1.151909147277171218e-05
1.1573949673745186908e-05
1.1605153440547360267e-05
1.1624582470379782247e-05
1.164614198166722554e-05
1.1679471169676433384e-05
1.1730301511529532204e-05
1.1798314511968187448e-05
1.1877773367143874126e-05
1.1957323162366422019e-05
1.2024518776691306949e-05
1.2068787996629733042e-05
1.2087539705133897516e-05
1.2087087918084189436e-05
1.2078156305199271313e-05
1.2060750597024032064e-05
1.2013443089941087448e-05
1.1932895213357304782e-05
1.1865599395888043718e-05
1.1814707565152725077e-05
1.1779973019657806991e-05
1.1758936190803404365e-05
1.1747517887698204973e-05
1.0607732979656046057e-05
1.0590959897657802836e-05
1.0578560643155502849e-05
1.056183948737069044e-05
1.0549630537962303853e-05
1.0532921167839625438e-05
1.0520801973992667967e-05
1.0504038205763258136e-05
1.0491911317367003017e-05
1.0474947087426877176e-05
1.0462695817194439985e-05
1.0444042389996706851e-05
1.0434851990984721061e-05
1.1071840880832904948e-05
1.1110303951766429073e-05
1.1142564002311417928e-05
1.1172336666500015805e-05
1.1202147514255216169e-05
1.1234008366842079918e-05
1.1268297032170177812e-05
1.1304668686902738563e-05
1.1343101063673327684e-05
1.138471433541474676e-05
1.1428703392001993884e-05
1.1470734509252394494e-05
1.1504326907023834235e-05
1.152334609205628722e-05
1.1526753835066866311e-05
1.1520345809224974591e-05
1.1509345130378839813e-05
1.1484654348203238267e-05
1.1428345773174120584e-05
1.1374854867684758378e-05
1.1337271233752673483e-05
1.1313228877980746403e-05
1.1299540091016687223e-05
1.1291476346229343248e-05
1.1291401895070734662e-05
1.0190580687345759939e-05
1.0178715958204226553e-05
1.0162632506011479708e-05
1.0150920260352257172e-05
1.0134841552630366893e-05
1.0123138826847254582e-05
1.0106987610866017196e-05
1.0095301231739697411e-05
1.0078958820370091239e-05
1.0067159336395706501e-05
1.0049190277386494836e-05
1.0040366000611434071e-05
1.0676488153019944965e-05
1.0712519967775794552e-05
1.0752860648395825668e-05
1.0799000441394650097e-05
1.084900755703851883e-05
1.0897645216854297289e-05
1.0939625700893593389e-05
1.0971942424826256588e-05
1.0996000738839185372e-05
1.1014574285849135457e-05
1.1029575007939031633e-05
1.1039788837052642048e-05
1.1042902286391949044e-05
1.1039031174458607674e-05
1.1031085010072718392e-05
1.1019625047789467141e-05
1.0995433290812230118e-05
1.0947181221103040229e-05
1.0904398851050842634e-05
1.087356902802703332e-05
1.0853202053052633195e-05
1.0841066787549971044e-05
1.0833353045222320036e-05
1.0831682924009023743e-05
1.0259764439168805061e-05
1.0342674814890678438e-05
1.042220702168293798e-05
1.0497352817527034821e-05
1.0562141730207969911e-05
1.0611080579659756395e-05
1.0641393983151631783e-05
1.0656981737568075268e-05
1.0663824530366332555e-05
1.0667749302446066887e-05
1.0669390463174580793e-05
1.0667145326624709878e-05
1.0660909849170590224e-05
1.0652266150083619818e-05
1.0637428366349682078e-05
1.0600737937143054411e-05
1.054125441418395544e-05
1.0494058826724495621e-05
1.046189365033885404e-05
1.0442122174852816184e-05
1.0431113647055593332e-05
1.0424383934123678715e-05
1.0425366217654423494e-05
9.9832811190780833087e-06
1.0051268930247070579e-05
1.0120521979234408877e-05
1.0180278777801257757e-05
1.0223119934919983764e-05
1.0247045930768098644e-05
1.0256431867667347872e-05
1.0257162602698133337e-05
1.0253354831601516319e-05
1.0247189778003059369e-05
1.0239713568454993558e-05
1.0229390189755915641e-05
1.0208475058586077887e-05
1.0159208688969212616e-05
1.0106663875142540056e-05
1.0068323509352689551e-05
1.0043396541595709274e-05
1.0028886504039306548e-05
1.0020637457765413768e-05
1.0016105240421891936e-05
1.0025293912186448373e-05
9.8764042348066725772e-06
9.9009633550715436844e-06
9.9052974383157892091e-06
9.8998354074048587408e-06
9.8917211357936959157e-06
9.8792965143034701625e-06
9.8563793539962887765e-06
9.8268125334732543772e-06
9.7960276934580282757e-06
9.7658153752340776929e-06
9.7383312024025489177e-06
9.7155580061984557092e-06
9.6987107497840102232e-06
9.6870335532652371632e-06
9.6792173901993731211e-06
9.6738375733574219148e-06
9.6771782825706935941e-06
9.5830523490635770593e-06
9.5785386538934708849e-06
9.5723335743296515129e-06
9.5654512955317666224e-06
9.5574755710579285605e-06
9.5471795095222118416e-06
9.5307793917955551251e-06
9.497539540522545619e-06
9.4583786697708494918e-06
9.4236204440476599133e-06
9.3967137963237036254e-06
9.3786168386822280421e-06
9.3681974325664985401e-06
9.238650843688097207e-06
9.2534680775175495531e-06
9.2552878658947163021e-06
9.2493931251488968067e-06
9.2393045843916226132e-06
9.2149235463236471962e-06
9.1607210512776460079e-06
9.1105477953852696593e-06
9.0721263043855402287e-06
9.044506303509409074e-06
9.0263381041047733471e-06
9.0152701250478749873e-06
4.9822763376657303722e-06
4.9740644978187198257e-06
4.9723268757881107906e-06
4.9834122539914282293e-06
5.0424054093443136272e-06
5.2510784462225388043e-06
5.5223569055016862939e-06
5.6988272253839426137e-06
5.7892585853012140239e-06
5.8177753570165119401e-06
5.8171975216428613509e-06
5.8045355810732491588e-06
5.7553576490527227081e-06
5.6070462161601652447e-06
5.432159541229733905e-06
5.2900786019404566119e-06
5.1802516099645031704e-06
5.0991071940919086497e-06
5.0426106319602074881e-06
5.0069872713009463302e-06
7.6066695963366242174e-06
7.5896590962742203567e-06
7.5829338651491144178e-06
7.5834872388405505839e-06
7.6072129372088711347e-06
7.7049960470549289034e-06
7.9691037433186582303e-06
8.2094200763187521547e-06
8.3546454476441776876e-06
8.4158107490679564887e-06
8.4251546053322730285e-06
8.4159107201095248506e-06
8.3817951849364061989e-06
8.2673351441698191271e-06
8.0277778563686852397e-06
7.8112540432084619197e-06
7.64216766060777099e-06
7.5218099316982247704e-06
7.4456436271698566695e-06
7.4044157078537754452e-06
7.3859232248747853998e-06
7.378837881307577211e-06
1.3812205440103714858e-05
1.3809266499870290559e-05
1.3809923649438635414e-05
1.3823400487034893775e-05
1.3866448010908101701e-05
1.3997276541350489674e-05
1.4289537429852848123e-05
1.4551807533135409508e-05
1.4724520862961946397e-05
1.480127485322078613e-05
1.4816248644902856203e-05
1.4805967233202781626e-05
1.4774070436975358906e-05
1.4674628806490259028e-05
1.4468248877028885496e-05
1.4286611157918798092e-05
1.4160371323381366668e-05
1.4092952218595997471e-05
1.4062199620757275103e-05
1.4047711641549247047e-05
1.4041196838724449589e-05
1.4049879468538700671e-05
1.408947139560836622e-05
1.4203994451126852677e-05
1.4427351887279334303e-05
1.4675473637587096654e-05
3.1108836569449944943e-05
3.1176879077322939616e-05
3.130573560483772993e-05
3.1534330781287573981e-05
3.1865166418387046849e-05
3.2247710630354154034e-05
3.2626582817375336524e-05
3.2921704376105719904e-05
3.3099874380158591993e-05
3.3160260906016986637e-05
3.315613607625849589e-05
3.312285535688166342e-05
3.3024171227251176216e-05
3.2850027859699836507e-05
3.2733691231591896195e-05
3.2671535828839204276e-05
3.2643860233158176814e-05
3.2632371026552311262e-05
3.2660843963237873365e-05
3.2808221575353681569e-05
3.3063178254853272796e-05
3.3339395260586563363e-05
3.3651851336861921373e-05
3.3994427404245845423e-05
3.4348640861729735799e-05
3.468597446102931499e-05
3.4968678373055640416e-05
3.5173648744462200069e-05
6.3738881727012669954e-05
6.38142436080218258e-05
6.3927049397239960223e-05
6.408662087466036883e-05
6.4275116469575930851e-05
6.4468121272794859486e-05
6.4619361180971604617e-05
6.4703064951938976017e-05
6.4713748631656180352e-05
6.4680299181806157711e-05
6.4623189023668429674e-05
6.4511595877879190702e-05
6.4379278581429600389e-05
6.4284893251422844202e-05
6.4222747772758409729e-05
6.4183924096527454053e-05
6.4175598000416208774e-05
6.4249814394829460936e-05
6.4360177247808797213e-05
6.4461860325382987864e-05
6.4562252255674800112e-05
6.466074544750096255e-05
6.4750998550029584093e-05
6.4821739547038200509e-05
6.486502193871742717e-05
6.4873279218426524321e-05
6.4846132426112727798e-05
6.4800059477804750866e-05
6.4744539137438458006e-05
6.4663353529225954747e-05
9.2271470670330738039e-05
9.2109884945567747959e-05
9.1950530336653578975e-05
9.1784871964544758813e-05
9.1603390120461770257e-05
9.1399665632509895967e-05
9.1173290738265943861e-05
9.0929851855014366831e-05
9.0679067116905380259e-05
9.0432408484115921437e-05
9.0200058464241718477e-05
8.9989295084368502056e-05
8.9803517832712630316e-05
8.9641338736280620336e-05
8.9496169609475984853e-05
8.9358088910050024719e-05
8.9216592120778455432e-05
8.9064153661401338283e-05
8.8897420965381070005e-05
8.8717004401720752716e-05
8.8525277998070225948e-05
8.8323640875602289703e-05
8.8110508292016761394e-05
8.788386624010102407e-05
8.7642589236292109053e-05
8.7388934136729121333e-05
8.7128519435790329688e-05
8.6868943587035596572e-05
8.6617887157581379982e-05
8.6380671004914077083e-05
8.6160112784167857455e-05
8.5956541815133017206e-05
0.00010594798795065412701
0.00010561976981126909852
0.00010529429155158612176
0.00010496824812803476302
0.00010463997085101527497
0.00010431077641957591223
0.00010398420753552393514
0.00010366330978455103875
0.00010334860356260041183
0.00010303811913862943449
0.00010272909129519817929
0.0001024207422781660959
0.00010211489648865368959
0.00010181397939607512743
0.00010151865831958913533
0.00010122674162280319028
0.00010093427304600962322
0.00010063896388382821635
0.00010034187830911674123
0.0001000465787597629039
9.9756852613433656543e-05
9.9474393093388206494e-05
9.919772384296277458e-05
9.8924376446648989557e-05
9.865259750341049468e-05
9.8382703118224173675e-05
9.8116473532692977133e-05
9.7855684893735709858e-05
9.7600273460957804022e-05
9.7348813648147640345e-05
9.7100210428189469508e-05
9.6854698957089639666e-05
9.6613371605467729094e-05
0.00014124419415341868899
0.00014042462818328199929
0.0001396405940290508952
0.00013886904855736864443
0.00013809196780164344838
0.00013731093080511858127
0.00011116897808580480228
0.00011081411872214314604
0.00011046377765608915748
0.00011011443718415801231
0.0001097646710742404357
0.0001094162721142924135
0.00010907286353487791045
0.00010873698730994678092
0.0001084081590706988021
0.00010808324467603790933
0.00010775920513097951364
0.0001074358515204314814
0.00010711661187320571686
0.00010680545565544556283
0.00010650399522132770515
0.00010620978066204414937
0.00010591844839039871542
0.00010562756938951425368
0.00010533862948968512289
0.0001050562905474799471
0.00010478432988453085693
0.00010452271577292145631
0.00010426799194830764256
0.00010401571564220284561
0.00010376311327001987161
0.00010351056119118719255
0.00010326026894105071478
0.00010301400445027861946
0.00010277195291778265485
0.00010253340908482219901
0.00010229820974405868475
0.00010206758024706709355
0.00010184378881121389183
0.00010162735187440161317
0.00013504021888905570628
0.00013425388395578671829
0.00013352610115795131404
0.00013281664573478615498
0.00013209675433467973904
0.00013137179719750237405
0.00013066731059525573322
0.0001078847315283782771
0.00010754829215025148116
0.00010719601200200063872
0.00010682895862266355029
0.00010645459213463831321
0.00010608232849788269583
0.00010571750270790497106
0.00010535870000826863882
0.0001050005853349611555
0.00010464047026949436744
0.00010428364774944702076
0.00010394079187631209259
0.00010362140752925860592
0.00010332710623731651935
0.00010305084980539003616
0.00010278280873915557965
0.00010251821553881049686
0.00010226079291313609635
0.0001020184012325735175
0.00010179534967529751694
0.00010158791296263644066
0.00010138597811543674119
0.00010117890213025050605
0.00010096198250250965913
0.00010073873476361050656
0.0001005167020343254459
0.00010030289855014847455
0.00010010047720246731395
9.9909317969604498778e-05
9.9728517866519216873e-05
9.9558362505728612056e-05
9.9398912375286594626e-05
9.9247125891362825405e-05
9.9096028628553779619e-05
9.8937301948842751613e-05
1.2362950849440494349e-07
1.2357260854043520895e-07
1.2349848785361934795e-07
1.2343788039886237341e-07
1.2337501658949179526e-07
1.2338430149478076504e-07
1.2340705205342307396e-07
1.2354533589261113809e-07
1.2370656572809837193e-07
1.2370846477927973543e-07
1.237603079735391639e-07
9.7106771705381200605e-07
9.8535273988200429252e-07
9.9411266730901481038e-07
9.9690892004818463159e-07
9.9593107819901392919e-07
9.9091637462687765994e-07
9.8605026561908502595e-07
9.8654164049838747442e-07
1.0005005367921039502e-06
1.0663907231322271213e-06
1.1638084569550063027e-06
1.2157678063333396212e-06
1.2327697738894881616e-06
1.2330082152926682379e-06
1.2250190233402971772e-06
1.1938548929611250799e-06
1.161352694803944737e-06
1.1446813132440233119e-06
1.1390220266675268483e-06
1.1384250965654092713e-06
1.1433626594724253203e-06
1.1692284286076838399e-06
1.2105702090122888967e-06
1.2353785838708203688e-06
1.244638395113949815e-06
1.2445688942781971105e-06
1.2375443239984516945e-06
1.2056852668089290361e-06
1.1635131537773241706e-06
1.1417359646872842562e-06
1.1360539445616671486e-06
1.1380120134797073759e-06
1.1580075969314296086e-06
1.2216129557809789528e-06
1.2761258207915486996e-06
1.3033886807258357701e-06
1.3116511910556659481e-07
1.308156564447710129e-07
1.3050739708655649966e-07
1.3025803416489128682e-07
1.3008743852322984676e-07
1.2998955700896994231e-07
1.2991942480290982614e-07
1.2986905285022214521e-07
1.2980283470872990498e-07
1.2970625549123774586e-07
1.2957395308859020419e-07
1.2944458487162279527e-07
1.2933038077206093222e-07
1.292403892095618203e-07
1.2917317832357177245e-07
1.2918732071547785157e-07
1.2921992203879410566e-07
1.2931096163930995204e-07
1.2941103600472656771e-07
1.2938046140643397888e-07
1.2933798579673458404e-07
9.7247904421833122222e-07
9.9498207598497489927e-07
1.00852706962645731e-06