/*--------------------------------*- C++ -*----------------------------------*\
  =========                 |
  \\      /  F ield         | OpenFOAM: The Open Source CFD Toolbox
   \\    /   O peration     | Website:  https://openfoam.org
    \\  /    A nd           | Version:  12
     \\/     M anipulation  |
\*---------------------------------------------------------------------------*/
FoamFile
{
    format      ascii;
    class       volScalarField;
    location    "0.01";
    object      pMean;
}
// * * * * * * * * * * * * * * * * * * * * * * * * * * * * * * * * * * * * * //

dimensions      [1 -1 -2 0 0 0 0];

internalField   nonuniform List<scalar> 
106891
(
99272.768176384081016
99273.156696187230409
99273.5728581884905
99274.017564764435519
99274.491639033600222
99274.995733388597728
99275.530291388553451
99276.095551460442948
99276.690775838389527
99277.31428675063944
99277.958091703156242
99293.629534788953606
99293.57440865211538
99293.518689998047194
99293.461995564430254
99293.405016688557225
99293.349169361958047
99293.295870724032284
99293.245595758853597
99293.197375162271783
99293.149446314186207
99293.100103015647619
99293.049171930193552
99292.998006306806928
99292.948922676208895
99292.903700291426503
99292.861921686824644
99292.821109074633569
99292.777872146631125
99292.729373477923218
99292.67457846502657
99292.613972904175171
99292.548271640698658
99292.477533912126091
99292.401429592951899
99292.320047296932898
99292.234744532950572
99292.148139539931435
99292.063278329893365
99291.98275456680858
99291.907938721677056
99291.838800845958758
99291.774678320653038
99291.714666595464223
99291.657907819288084
99291.603618666951661
99291.550973729274119
99291.499149083872908
99291.447674327107961
99273.146024005371146
99273.38128309660533
99273.635271420149365
99273.908448041795054
99274.201415889241616
99274.514937945656129
99274.849938511906657
99275.207473431713879
99275.588610977312783
99275.994397789880168
99276.425804113183403
99276.883747825122555
99277.369017079428886
99277.882315289141843
99278.424180183501448
99278.994909477871261
99279.594624526405823
99280.222524181604967
99280.877075651966152
99281.550831044834922
99293.574420330754947
99293.516862198215676
99293.460691947635496
99293.406076867308002
99293.353385816939408
99293.302807651678449
99293.253931937157176
99293.205383986263769
99293.155479046108667
99293.103219626587816
99293.049468279175926
99292.996199333152617
99292.94586268060084
99292.899807866881019
99292.857344813193777
99292.815733928058762
99292.771590242395177
99292.722126785767614
99292.666498593578581
99292.605359528402914
99292.539509260022896
99292.469099456357071
99292.393890902225394
99292.313598091845051
99292.228899039604585
99292.141954428007011
99292.056024277379038
99291.974141145357862
99291.898109836693038
99291.828316744184121
99291.764248772204155
99291.704805808913079
99291.64882009383291
99291.594992820901098
99291.542037863415317
99291.48908026299614
99275.98321358585963
99276.264290552178863
99276.563726754058735
99276.88186129645328
99277.219218146405183
99277.576520733025973
99277.954623559649917
99278.354494708561106
99278.777146598411491
99279.223592491223826
99279.694737914629513
99280.191378973206156
99280.714131336935679
99281.263471459416905
99281.839739678849583
99282.443088671760052
99283.073594044792117
99283.730479385892977
99284.412428390074638
99285.112494404558674
99293.583558080092189
99293.523909980882308
99293.468533611594466
99293.416764633948333
99293.367450203732005
99293.319297656111303
99293.27094398184272
99293.221056443435373
99293.168677029651008
99293.113916240705294
99293.058223635918694
99293.003788649526541
99292.952885192076792
99292.906607661396265
99292.863946278157528
99292.821857485439978
99292.77696176522295
99292.72687214067264
99292.670934195222799
99292.609741299966117
99292.544340667620418
99292.475150932354154
99292.401719554487499
99292.323583143981523
99292.241109756738297
99292.155857190737152
99292.07061153576069
99291.988464639623999
99291.911621590305003
99291.841140258111409
99291.776730645593489
99291.717196981437155
99291.661036336852703
99291.606728470069356
99291.552636861131759
99291.49765517488413
99279.163330799521646
99279.505217442288995
99279.865313032350969
99280.244045002546045
99280.642083432961954
99281.060275163472397
99281.499583001132123
99281.960972152199247
99282.445367176580476
99282.953555756947026
99283.486166663773474
99284.043615542119369
99284.626129961994593
99285.233800485366373
99285.866576206797617
99286.524444324502838
99287.206660407508025
99287.91218538551766
99288.634659647446824
99293.516107093993924
99293.462613028939813
99293.414830209818319
99293.369452350219944
99293.323344334959984
99293.274404261188465
99293.221834801865043
99293.166105086318566
99293.108986925974023
99293.052794077360886
99292.999814751936356
99292.951301803113893
99292.906984862769605
99292.864985660387902
99292.822231414786074
99292.775930338451872
99292.724369671646855
99292.667300689368858
99292.605673777987249
99292.540794022526825
99292.473219795763725
99292.402467158215586
99292.32811262118048
99292.250022357227863
99292.168989782760036
99292.087138274830068
99292.007202218082966
99291.931395013874862
99291.860896668324131
99291.795750469987979
99291.735163932957221
99291.677659028893686
99291.62165598825959
99291.565479550306918
99281.701479212701088
99282.064702560383012
99282.445689295243938
99282.844598725467222
99283.261750069024856
99283.697682901096414
99284.153153989624116
99284.629075915770954
99285.126419469801476
99285.646091313145007
99286.188754738817806
99286.754800215843716
99287.344338482798776
99287.95728770903952
99288.593491567575256
99289.252718328032643
99289.934883842084673
99290.639293372281827
99291.365154678205727
99292.106631294358522
99293.504699842553237
99293.45165107777575
99293.405873236886691
99293.362193921755534
99293.316249985946342
99293.265500495093875
99293.209699263315997
99293.150665719178505
99293.091537177722785
99293.035412962868577
99292.984433370336774
99292.938948726412491
99292.897353717402439
99292.856710555352038
99292.813868913552142
99292.766649255790981
99292.714062911880319
99292.656386435643071
99292.595048696020967
99292.53134625639359
99292.465838896794594
99292.398386142464005
99292.328572801998234
99292.255952214618446
99292.180669577734079
99292.103769492692663
99292.02719513750344
99291.953102937797667
99291.883071052870946
99291.817641227316926
99291.756177722796565
99291.697271539640496
99291.639255076923291
99284.957939805593924
99285.374500119505683
99285.808759069870575
99286.261093552107923
99286.732064178504515
99287.222372246484156
99287.73280904936837
99288.264108462550212
99288.816857849611552
99289.391414582802099
99289.987943015774363
99290.606375398987439
99291.246451715240255
99291.907837183927768
99292.590136154482025
99293.293201340653468
99294.016430565767223
99294.75937054635142
99295.51689399771567
99293.446472137206001
99293.400046283641132
99293.355682286637602
99293.308065002187504
99293.254139925731579
99293.194345206342405
99293.131667217210634
99293.070510496443603
99293.014594057633076
99292.965784815460211
99292.923230352549581
99292.884104461554671
99292.844934901950182
99292.802789284411119
99292.755875806309632
99292.703648092821823
99292.646554627659498
99292.585853991797194
99292.523054789824528
99292.459393905563047
99292.395241203063051
99292.329825989610981
99292.262102132299333
99292.19138185911288
99292.118230793377734
99292.044218767769053
99291.971632176690036
99291.902247636986431
99291.836784912549774
99291.774719956098124
99291.714748674348812
99291.655349646418472
99287.827910876105307
99288.276499819330638
99288.742876060889103
99289.227392172702821
99289.730508452077629
99290.252809757730574
99290.794934300240129
99291.357436257923837
99291.940702572261216
99292.544834743093816
99293.169611957113375
99293.814524940156844
99294.478976706173853
99295.16244508253294
99295.864504651282914
99296.585157951310975
99297.324027477050549
99298.081022524755099
99298.851683974775369
99293.410151548989234
99293.360875536644016
99293.308348122533062
99293.250305906840367
99293.187558405785239
99293.123161672236165
99293.061087174413842
99293.005018099560402
99292.956514608944417
99292.914776055127732
99292.877037184036453
99292.839406575803878
99292.798604622585117
99292.752854122765712
99292.701860166722327
99292.646274312210153
99292.587314282733132
99292.526275751675712
99292.464031446783338
99292.40092951124825
99292.336985493631801
99292.271593906509224
99292.203955469449284
99292.134193610298098
99292.063237358466722
99291.9929030862113
99291.925056426742231
99291.860586334005347
99291.799075151109719
99291.739339376494172
99291.144696361079696
99291.63973523947061
99292.153197048377478
99292.68551074359857
99293.237004465932841
99293.80792730502435
99294.398436572984792
99295.008556602202589
99295.638101930075209
99296.286720326708746
99296.953874669416109
99297.638883989464375
99298.341097838696442
99299.059953596879495
99299.795409086480504
99300.547144305543043
99301.315467985419673
99302.096684504605946
99293.361907066573622
99293.301450542581733
99293.236917425281717
99293.169387943518814
99293.101658729181509
99293.037104175717104
99292.978597850888036
99292.927577143433155
99292.883626498703961
99292.844374933163635
99292.806585625570733
99292.767229708726518
99292.724070883938111
99292.676499700013665
99292.624848179708351
99292.569708660623292
99292.511847776389914
99292.452010043998598
99292.390737254245323
99292.327971077364055
99292.263256519203424
99292.196228605127544
99292.127374265925027
99292.0583184077841
99291.990730925492244
99291.925939375316375
99291.864377649311791
99291.805631857205299
99293.964799481444061
99294.485637959689484
99295.024560864956584
99295.582054968050215
99296.158461896251538
99296.753928316597012
99297.36839311964286
99298.001615026121726
99298.653111915744375
99299.322211086851894
99300.008137922151946
99300.710187503369525
99301.427820798198809
99302.160556867282139
99302.908407865295885
99303.67099549494742
99304.44871988837258
99305.238179410342127
99293.310183117093402
99293.240111110630096
99293.168852593094925
99293.098366655554855
99293.030958335497417
99292.968622955246246
99292.912707419498474
99292.863390406186227
99292.819509666849626
99292.778593602124602
99292.738091086721397
99292.695752176383394
99292.650315436141682
99292.601369399169926
99292.549048079716158
99292.493668538620113
99292.435414461739128
99292.374524625760387
99292.311144330102252
99292.245366990318871
99292.177940299370675
99292.110273103709915
99292.044148741377285
99291.980958403859404
99291.921529094484868
99291.865902709003421
99291.813391688890988
99297.277441462516435
99297.839249406490126
99298.418616996466881
99299.015654946007999
99299.630324947458575
99300.262461122823879
99300.911781015864108
99301.577934895132785
99302.260534886547248
99302.959073367237579
99303.672964267447242
99304.401719231143943
99305.144949361623731
99305.902732494854718
99306.674667840678012
99307.46116314396204
99308.259009029163281
99293.387614205101272
99293.314391678170068
99293.240815496188588
99293.166960314410971
99293.093630993666011
99293.022002574012731
99292.953616862985655
99292.889875554727041
99292.831622430618154
99292.778694945809548
99292.730149069786421
99292.684502311065444
99292.640515039907768
99292.596816507924814
99292.55232147964125
99292.505974240470096
99292.456418497065897
99292.402564671720029
99292.344290442575584
99292.28261547832517
99292.21891294431407
99292.154635866478202
99292.091344322921941
99292.030735344873392
99291.974143062558142
99291.921892318030586
99291.873643570637796
99300.57106485364784
99301.168670168859535
99301.782263123852317
99302.411810180652537
99303.057156859795214
99303.718102508588345
99304.394398516742513
99305.085825208763708
99305.792205271834973
99306.513447813806124
99307.249500542835449
99308.000201464266866
99308.765597925623297
99309.54509933978261
99310.338844064986915
99311.143695034246775
99293.383869691329892
99293.310608020488871
99293.236086362710921
99293.159997979790205
99293.083287454559468
99293.00777903686685
99292.935275607625954
99292.866817405607435
99292.802393718957319
99292.741879491106374
99292.685328746112646
99292.632642529773875
99292.583713914631517
99292.537833091788343
99292.493447204687982
99292.448372660408495
99292.400786703597987
99292.349867753233411
99292.295828319096472
99292.2394001497305
99292.18168767739553
99292.123868637194391
99292.067348251599469
99292.013699282324524
99291.964306010137079
99291.919784735902795
99291.880093319734442
99291.844671648534131
99303.432921154177166
99304.057433562964434
99304.69624454730365
99305.349294690531678
99306.016532125970116
99306.697994984133402
99307.393845896105631
99308.104296399309533
99308.829593316069804
99309.569916552223731
99310.325276030125679
99311.09577482957684
99311.880781359548564
99312.680182509124279
99313.490920729498612
99293.301058880635537
99293.22856713917281
99293.152979822494672
99293.075439093183377
99292.998268605035264
99292.923623713344568
99292.852495159837417
99292.784543624788057
99292.719203473330708
99292.656720534272608
99292.597786723330501
99292.543251379684079
99292.493158892641077
99292.446220648824237
99292.400347895963932
99292.353867755271494
99292.30612419017416
99292.257150404693675
99292.207205989034264
99292.156770602421602
99292.106514910294209
99292.057247072370956
99292.010114471209818
99291.966454259003513
99291.927497760421829
99291.893687420786591
99291.864528413265361
99305.842564459060668
99306.487684743551654
99307.145930429236614
99307.817462787978002
99308.502521217116737
99309.201470370011521
99309.914755424717441
99310.642841001230408
99311.386089455452748
99312.144617683705292
99312.918477784478455
99313.706960062379949
99314.509753458129126
99315.323858767587808
99293.217150614334969
99293.142304265653365
99293.0652656401071
99292.988988256256562
99292.915479568007868
99292.844657672729227
99292.775250843522372
99292.706626668659737
99292.639165728178341
99292.574343919361127
99292.513443439398543
99292.457219889067346
99292.405321774829645
99292.356435204084846
99292.309465365411597
99292.26411391342117
99292.22042356095335
99292.178164724493399
99292.136731996230083
99292.095496571244439
99292.054513844312169
99292.014479661811492
99291.976752409755136
99291.942707059075474
99291.913257139982306
99291.888429230719339
99308.084156143580913
99308.746924053368275
99309.422162588045467
99310.110296084094443
99310.811883381393272
99311.527543470321689
99312.257897115458036
99313.003418674270506
99313.764294529537437
99314.540558660039096
99315.331426132252091
99316.136406888981583
99316.952587534877239
99293.112221650284482
99293.037480082508409
99292.963642993345275
99292.892319869541097
99292.822973516798811
99292.753988563592429
99292.684204200748354
99292.613951800769428
99292.545038220530841
99292.479473659754149
99292.418363529941416
99292.361748253330006
99292.309253771149088
99292.260753051654319
99292.216637344361516
99292.177058752262383
99292.141270506108413
99292.107765761626069
99292.075047906895634
99292.041945363525883
99292.008487854691339
99291.976034595048986
99291.946413140147342
99291.920884388702689
99291.899639999639476
99310.172860447783023
99310.851902252354193
99311.543261590632028
99312.247564245932153
99312.965509573972668
99313.697794900974259
99314.444957265601261
99315.207228686253075
99315.984612264743191
99316.776328683641623
99317.581858788078534
99318.398456292314222
99293.008180866003386
99292.93777115951525
99292.869512208402739
99292.802401212757104
99292.734708547301125
99292.664930835919222
99292.593327360533294
99292.521659053425537
99292.452109718156862
99292.386337035524775
99292.325178307248279
99292.269117432006169
99292.2187381987751
99292.174924815408303
99292.137946137081599
99292.106745881203096
99292.079285876025097
99292.053170067360043
99292.026756710838526
99291.999580760646495
99291.972421012163977
99291.946924021700397
99291.924400308198528
99291.905459068191703
99292.890468999597942
99292.824733665038366
99292.760040124165243
99292.694563661920256
99292.626706974289846
99292.556326722973608
99292.484750705625629
99292.413872752382304
99292.345570643607061
99292.281165808512014
99292.221834803844104
99292.168873867514776
99292.123654112452641
99292.086982752894983
99292.058117697073612
99292.034816798652173
99292.014108817907982
99291.993691686962848
99291.972562106544501
99291.950782036758028
99291.929552930349018
99291.910094069360639
99291.893168844049796
99292.725909360480728
99292.661668695334811
99292.594705024559516
99292.524598420015536
99292.452886153681902
99292.381770421125111
99292.313181201810949
99292.248350895955809
99292.188393087330041
99292.134557742974721
99292.088306024103076
99292.050750114736729
99292.021671235241229
99291.999186694840319
99291.980339392612223
99291.962794163278886
99291.945293995449902
99291.927620903719799
99291.91034671489615
99291.894353871422936
99291.879926747089485
99292.418633684021188
99292.348584775143536
99292.280606510539656
99292.21614765173581
99292.156152503433987
99292.101690536917886
99292.054238422249909
99292.015120381533052
99291.98464331732248
99291.961561919364613
99291.943490500823827
99291.928046181201353
99291.913570476768655
99291.899266972162877
99291.885249612605548
99291.872284913799376
99291.860581267494126
99292.123637944678194
99292.070538479121751
99292.022723267305992
99291.981537493527867
99291.948072432627669
99291.922085776313907
99291.902052107747295
99291.885760594537714
99291.871711717190919
99291.859212897557882
99291.848210922500584
99291.838983728492167
99291.831191244433285
99292.037579885422019
99291.990220329447766
99291.948042466421612
99291.912493025069125
99291.883985612817924
99291.861896283386159
99291.84459032502491
99291.830531547369901
99291.8191492138576
99291.810276551012066
99291.803893857853836
99291.79935358990042
99297.293866019797861
99297.184997927091899
99297.073753363176365
99296.961590726859868
99296.852753723709611
99296.75173166921013
99296.660587942635175
99296.578084414853947
99296.501054810534697
99296.426928810047684
99296.355045933247311
99296.286589448485756
99296.222898364925641
99296.163813179780846
99296.107760012819199
99296.052042453855393
99295.993285591917811
99295.928897198828054
99295.858796833184897
99295.785679350665305
99297.385179902936216
99297.276596366558806
99297.167852835642407
99297.056927989047836
99296.944956360108336
99296.836159814702114
99296.735364300257061
99296.645093085739063
99296.564101541778655
99296.488930685911328
99296.416542563092662
99296.346251068782294
99296.279570379309007
99296.218085558648454
99296.161612999931094
99296.107875898043858
99296.053302144995541
99295.994262916996377
99295.928729428516817
99295.857406811395776
99295.783453409196227
99295.710968964282074
99297.597777038463391
99297.482728458780912
99297.370442008032114
99297.260704281958169
99297.151169571428909
99297.039787438188796
99296.927475286676781
99296.818565178618883
99296.718232318511582
99296.62913191865664
99296.549991466425126
99296.476858760623145
99296.406312978710048
99296.337733491833205
99296.272846770996694
99296.213420763175236
99296.159159247283242
99296.107200440354063
99296.053267355498974
99295.993728749119327
99295.927063853407162
99295.854728813748807
99295.780375082569662
99295.707904852664797
99295.640116831462365
99295.578238456728286
99297.70100715359149
99297.585036768999998
99297.468400203171768
99297.354833116085501
99297.244612984766718
99297.135144655359909
99297.023858994463808
99296.911298116610851
99296.802158412028803
99296.702032966029947
99296.613888465974014
99296.536362957238453
99296.465093403254286
99296.396097799981362
99296.328660413622856
99296.265126186757698
99296.207699715203489
99296.15575590323715
99296.10562547641166
99296.052415493279113
99295.992274634787464
99295.924268786155153
99295.850747284872341
99295.775872833124595
99295.703422410719213
99295.635734318988398
99295.57372800334997
99295.517020952829625
99297.800165321008535
99297.690090458316263
99297.574518302208162
99297.457855091139209
99297.343757905240636
99297.232652301026974
99297.122014055028558
99297.009360918178572
99296.89565748089808
99296.785935297928518
99296.686273225524928
99296.599625876318896
99296.524235596953076
99296.455055178215844
99296.387523405661341
99296.321142800865346
99296.258669775765156
99296.20260373110068
99296.152345988957677
99296.10389599246264
99296.05167648603674
99295.991515469810111
99295.922686076242826
99295.848186522620381
99295.772678085268126
99295.699998504947871
99295.632200643871329
99295.569966417329852
99295.512883570539998
99295.459845226621837
99297.895893239416182
99297.793933818684309
99297.683507060981356
99297.566804488233174
99297.448803301536827
99297.333634230861207
99297.221970953105483
99297.111380263260799
99296.999103877416928
99296.8855870829575
99296.775881951369229
99296.676397939329036
99296.590442601125687
99296.51629069999035
99296.448424454734777
99296.381888746545883
99296.316056213268894
99296.254275719766156
99296.199611122210626
99296.151118896668777
99296.104104116369854
99296.052396373925149
99295.99163042861619
99295.921532265565475
99295.845926872963901
99295.77001427851792
99295.697555989507237
99295.630150690805749
99295.568085437233094
99295.511019039389794
99295.458137430236093
99295.408014782238752
99297.897045873687603
99297.795264263404533
99297.684723139929702
99297.567668438437977
99297.449178339025821
99297.333592539158417
99297.221686685588793
99297.110882129825768
99296.998112717890763
99296.8838749385759
99296.773500285315095
99296.673893402068643
99296.588492701936048
99296.51534531849029
99296.448623609743663
99296.382916996823042
99296.317564950048109
99296.256186164726387
99296.202167658440885
99296.154653551609954
99296.10868830565596
99296.057589471995016
99295.996690996340476
99295.925948918258655
99295.849619915767107
99295.773290142606129
99295.700695662701037
99295.633192814973881
99295.570901779588894
99295.513513704703655
99295.460510218385025
99295.410771452021436
99295.360959365629242
99305.332580516042071
99305.175119997074944
99305.003611930267652
99304.815557368667214
99304.623607175570214
99304.442383919886197
99297.898047413531458
99297.796440054065897
99297.68565290713741
99297.567916235842858
99297.448713316465728
99297.332586035394343
99297.220424778395682
99297.109582396558835
99296.996708140344708
99296.882091775914887
99296.771277034800733
99296.671456931595458
99296.586261204967741
99296.513718057656661
99296.447681996229221
99296.38235684557003
99296.317083167843521
99296.255904730322072
99296.202518304111436
99296.15595616515202
99296.110899198363768
99296.060239475846174
99295.999121366665349
99295.92770140353241
99295.850754909522948
99295.774158027925296
99295.701568980060983
99295.634078577815671
99295.571637353932601
99295.514025371565367
99295.460928271670127
99295.411489855730906
99295.362205296449247
99295.307653158699395
99305.489934498313232
99305.331408919839305
99305.175247427527211
99305.003634068518295
99304.814321620680857
99304.621331239119172
99304.439879778961767
99297.903744342402206
99297.802247229454224
99297.691284720087424
99297.573195329285227
99297.453676437246031
99297.33732735425292
99297.225096731897793
99297.114289068907965
99297.001318723705481
99296.886413617277867
99296.775334521982586
99296.675376347018755
99296.590344486554386
99296.518212526105344
99296.452569921835675
99296.387433889045496
99296.322234647755977
99296.261159101966769
99296.208003708496108
99296.161838871557848
99296.117212272671168
99296.066762454356649
99296.005510917588254
99295.933722625442897
99295.856458292371826
99295.779711923547438
99295.707064528571209
99295.63954857342469
99295.577043841505656
99295.51932001140085
99295.466219388326863
99295.417064559820574
99295.368126366884098
99295.313816006368143
99295.250123758902191
99271.931008279920206
99272.324168345687212
99272.746803249407094
99273.198826458610711
99273.680082219652832
99274.190441438011476
99274.729848551738542
99275.29846679669572
99275.895909198443405
99276.520994937469368
99277.166772365802899
99293.966711515749921
99293.914618992756004
99293.864658397913445
99293.816406711091986
99293.76838345437136
99293.71924928080989
99293.668434473962407
99293.616108028756571
99293.562558925958001
99293.507787317314069
99293.451391823968152
99293.392838630155893
99293.332231573949684
99293.270382396207424
99293.208031432746793
99293.145638778005377
99293.08307736790448
99293.020070431564818
99292.957206350867637
99292.896390479829279
99292.839528281328967
99292.787392451456981
99292.738668562698876
99292.690053550380981
99292.637410565497703
99292.577409472156432
99292.5090467169357
99292.433874905531411
99292.355140246494557
99292.276952222702675
99292.202837999124313
99292.134652102220571
99292.072356113785645
99292.01409038733982
99291.956942314747721
99291.898140782141127
99272.163722812008928
99272.370818562325439
99272.594383301839116
99272.835707301041111
99273.096301893863711
99273.377813046536176
99273.681939697416965
99274.010311314559658
99274.364376938450732
99274.745250201114686
99275.153666118421825
99275.589962785248645
99276.054221997008426
99276.546281054077554
99277.065916945080971
99277.612980098623666
99278.187382454532781
99278.789299177413341
99279.418311293731676
99280.073411809178651
99280.748057394928765
99293.986054395121755
99293.939351633627666
99293.892881584863062
99293.844864733648137
99293.793522283114726
99293.738214510332909
99293.679943256545812
99293.620357408319251
99293.561257721550646
99293.503283910467871
99293.445724637742387
99293.387264149831026
99293.327360562630929
99293.266618976835161
99293.205998425706639
99293.146049306917121
99293.086698886545491
99293.027255038090516
99292.967463297958602
99292.908214781447896
99292.850796557177091
99292.795759107291815
99292.742544774024282
99292.68917014588078
99292.632565420193714
99292.569995850310079
99292.500640627113171
99292.425682612345554
99292.347874016515561
99292.270663785588113
99292.197301127525861
99292.129717474090285
99292.067952273093397
99292.010282480347087
99291.953798962305882
99291.895568407766405
99274.951712621565093
99275.203431274567265
99275.47209271126485
99275.759025992520037
99276.065636211584206
99276.393331311584916
99276.743444158360944
99277.117166643001838
99277.51550779354875
99277.939216820712318
99278.388783679707558
99278.864412916533183
99279.366118925725459
99279.893795532494551
99280.447334788055741
99281.026709410973126
99281.631908886221936
99282.263173947023461
99282.92008181088022
99283.601803771016421
99284.30208914965624
99293.981183398806024
99293.935889007450896
99293.885708197325584
99293.829279052311904
99293.767086376741645
99293.701417961652623
99293.635336387204006
99293.571491054928629
99293.510836711051525
99293.45256873164908
99293.394857262697769
99293.336421465981402
99293.277421212507761
99293.218909283095854
99293.16162207047455
99293.105495902389521
99293.049589905174798
99292.992878436358296
99292.935172937228344
99292.8768735446356
99292.818382840734557
99292.759832071897108
99292.700738170242403
99292.639828656159807
99292.57554906338919
99292.506872602913063
99292.434159424126847
99292.359019014271325
99292.284197159009636
99292.212638957556919
99292.146250626043184
99292.085191693200613
99292.027776468792581
99291.97132335351489
99278.057154431400704
99278.369665993246599
99278.700979253582773
99279.052260748430854
99279.424536580467247
99279.818672223875183
99280.235343457432464
99280.675057592103258
99281.138185472707846
99281.625032282187021
99282.135792382716318
99282.670589804052725
99283.229484047900769
99283.812578845434473
99284.420095803856384
99285.052208259163308
99285.709253810215159
99286.390777301479829
99287.096061435513548
99287.819069628269062
99294.015470439582714
99293.968084764681407
99293.913381006626878
99293.85055813465442
99293.781255175883416
99293.709006745382794
99293.638057301373919
99293.571328298930894
99293.509489600401139
99293.4515058988909
99293.39513644494582
99293.338600839342689
99293.281635292907595
99293.225123537966283
99293.169806997422711
99293.115632288332563
99293.06169362179935
99293.006543132316438
99292.949163934157696
99292.889364137707162
99292.827520835824544
99292.764381813103682
99292.700856917406782
99292.637059799046256
99292.572393625276163
99292.505746946873842
99292.436609037933522
99292.365522886320832
99292.2942261815042
99292.225149829784641
99292.160169062073692
99292.09970163932303
99292.042441354555194
99291.986090791586321
99280.919791599866585
99281.274644436212839
99281.64876063959673
99282.042896088794805
99282.457567676639883
99282.893078104432789
99283.349609098848305
99283.827293615191593
99284.326240699316259
99284.846589350287104
99285.388523742585676
99285.952369887905661
99286.538529516663402
99287.1474324335868
99287.779530697720475
99288.435153765574796
99289.114739605109207
99289.817843734301277
99290.543891598339542
99291.287019090465037
99294.003665968091809
99293.942723785861745
99293.873959465097869
99293.799834950928926
99293.724072747630998
99293.650619169609854
99293.582382312699337
99293.519965070066974
99293.462175293636392
99293.406821571625187
99293.351770922832657
99293.295989987484063
99293.239759812713601
99293.183998864056775
99293.129114955270779
99293.074770512786927
99293.019944369618315
99292.96328221046133
99292.903717620545649
99292.84099118883023
99292.77592938390444
99292.70999885238416
99292.644390875342651
99292.579392642670427
99292.514290221020929
99292.448020470663323
99292.380389221041696
99292.31235287389427
99292.245891919650603
99292.18261740586604
99292.123079103417695
99292.066435017855838
99284.179300927236909
99284.593537052031024
99285.027585970921791
99285.481460963201243
99285.95496667327825
99286.447769965045154
99286.959548574013752
99287.490130283869803
99288.039637155714445
99288.608486576311407
99289.197339427017141
99289.806961437905557