/*--------------------------------*- C++ -*----------------------------------*\
  =========                 |
  \\      /  F ield         | OpenFOAM: The Open Source CFD Toolbox
   \\    /   O peration     | Website:  https://openfoam.org
    \\  /    A nd           | Version:  12
     \\/     M anipulation  |
\*---------------------------------------------------------------------------*/
FoamFile
{
    format      ascii;
    class       volScalarField;
    location    "0.01";
    object      pPrime2Mean;
}
// * * * * * * * * * * * * * * * * * * * * * * * * * * * * * * * * * * * * * //

dimensions      [2 -2 -4 0 0 0 0];

internalField   nonuniform List<scalar> 
106891
(
675927.89983940124512
675292.50486183166504
674648.83290863037109
673996.80473709106445
673341.01013946533203
672685.64187622070312
672036.76303291320801
671393.51509094238281
670756.20876502990723
670120.69087409973145
669477.7408447265625
1003586.3025779724121
1002503.1083316802979
1001426.4331893920898
1000350.4012336730957
999272.04854965209961
998191.97613143920898
997112.45015335083008
996034.17831230163574
994955.18108177185059
993872.95204544067383
992784.43069839477539
991688.63739204406738
990589.81180953979492
989497.68176651000977
988419.40241432189941
987352.63913154602051
986287.07718086242676
985210.69834136962891
984114.53332328796387
982996.73047065734863
981861.43078804016113
980713.0490608215332
979552.7945384979248
978381.69921875
977204.63001823425293
976031.40717506408691
974874.01179695129395
973741.91963386535645
972639.90459060668945
971567.62440299987793
970518.68024826049805
969484.2392749786377
968458.58263969421387
967441.78684043884277
966435.24934959411621
965436.47395515441895
964438.63272094726562
963435.46698379516602
681166.62168884277344
680444.41052436828613
679731.56493186950684
679027.03421592712402
678331.69942092895508
677647.77174186706543
676977.02672386169434
676318.88814735412598
675669.1959285736084
675021.03678703308105
674366.84145355224609
673701.96459579467773
673025.4730396270752
672341.49217987060547
671654.29854202270508
670970.27580642700195
670289.6489143371582
669613.89372444152832
668940.57509803771973
668261.66970252990723
1002553.4557304382324
1001470.7281723022461
1000399.736291885376
999333.7981128692627
998269.17497634887695
997204.3339672088623
996137.62953948974609
995066.65890312194824
993990.2198600769043
992907.91975593566895
991821.10797500610352
990734.61298370361328
989658.15766906738281
988598.18703651428223
987550.59526634216309
986502.71222686767578
985441.30485343933105
984358.14857292175293
983253.52998542785645
982132.6844482421875
980999.92435455322266
979856.83092880249023
978704.80426025390625
977547.51309394836426
976391.85867118835449
975246.98160171508789
974121.40802192687988
973020.53789710998535
971945.33506774902344
970890.54252052307129
969847.02077865600586
968806.91210746765137
967768.91580009460449
966735.79522895812988
965708.1439266204834
964681.97737693786621
680507.57817459106445
679765.64785194396973
679030.34496307373047
678300.00741577148438
677576.09899711608887
676862.29520416259766
676162.04356002807617
675476.04987144470215
674800.83277893066406
674129.65918922424316
673454.75828552246094
672770.71755790710449
672075.3795108795166
671371.20936393737793
670661.08609580993652
669950.46125984191895
669239.82063293457031
668531.27873039245605
667824.02187347412109
667111.33466911315918
1002712.4351387023926
1001605.9233703613281
1000522.1945247650146
999450.13703727722168
998381.73294258117676
997312.64174461364746
996239.95286560058594
995162.26653289794922
994081.17123222351074
992999.93899154663086
991921.1261100769043
990849.04567337036133
989791.60827255249023
988753.62357330322266
987729.21319198608398
986703.46832084655762
985662.22832107543945
984599.31949615478516
983517.21071434020996
982421.34899520874023
981315.8515625
980201.97037887573242
979080.04812812805176
977952.0948657989502
976822.11963653564453
975695.81879234313965
974579.82887268066406
973479.5330867767334
972397.09988594055176
971330.70033645629883
970273.03426170349121
969215.42696380615234
968154.0948429107666
967091.62550735473633
966030.96850967407227
964971.03585624694824
679117.84111785888672
678363.16703605651855
677613.28182983398438
676868.07315063476562
676130.02285575866699
675402.19710350036621
674686.08181571960449
673979.98936080932617
673279.26967430114746
672577.82121467590332
671870.87273788452148
671155.87877082824707
670433.96205139160156
669706.39041709899902
668977.07331275939941
668246.03562164306641
667515.39533233642578
666785.333251953125
666049.73563003540039
1001870.6821002960205
1000757.608642578125
999661.12333679199219
998569.80454254150391
997477.891357421875
996382.64571571350098
995284.23513984680176
994187.37939262390137
993098.86743354797363
992023.20158958435059
990964.60473823547363
989927.62932968139648
988912.58454132080078
987910.96979713439941
986907.07985496520996
985887.81110000610352
984849.12713432312012
983794.67232131958008
982730.00114440917969
981659.07047271728516
980582.72539520263672
979499.42494773864746
978408.80911445617676
977312.09972953796387
976212.80997276306152
975115.52274322509766
974023.56513786315918
972939.00188255310059
971862.07991790771484
970788.50650024414062
969711.26801681518555
968625.41057205200195
967532.4347972869873
966436.74217414855957
679348.59454154968262
678554.52912139892578
677773.76565933227539
677002.71121597290039
676239.35715866088867
675483.35417747497559
674735.29327964782715
673995.60723114013672
673263.31854057312012
672535.73958587646484
671808.94283485412598
671079.58160018920898
670345.32841110229492
669606.30215072631836
668862.38614273071289
668116.17419052124023
667367.52646827697754
666618.78929138183594
665871.22218704223633
665119.16774368286133
1002292.1724433898926
1001135.2324829101562
999997.62663269042969
998865.3831615447998
997732.76738929748535
996598.84342956542969
995466.80314826965332
994344.19877052307129
993241.13012886047363
992165.56568908691406
991121.27753829956055
990107.2982120513916
989117.34480667114258
988139.76524543762207
987159.94396018981934
986167.34897804260254
985159.22419166564941
984139.20996475219727
983112.56000328063965
982081.73331832885742
981046.12748336791992
980002.39491653442383
978947.82622909545898
977883.83449363708496
976814.77647972106934
975743.25723838806152
974669.00321006774902
973591.17963409423828
972510.156005859375
971424.55489158630371
970329.13451385498047
969219.73966407775879
968098.48345375061035
678156.52302551269531
677342.84505271911621
676544.13850784301758
675758.46016502380371
674983.88488006591797
674218.83175086975098
673462.1122989654541
672712.34837341308594
671967.51492500305176
671224.83083724975586
670481.71600723266602
669735.74544715881348
668985.87660598754883
668230.41945838928223
667470.44588088989258
666705.49957275390625
665938.21691131591797
665171.23714828491211
664399.91671752929688
1001666.5903301239014
1000480.8539905548096
999301.59247589111328
998122.22098922729492
996943.08848762512207
995769.99627113342285
994612.99773788452148
993486.12489891052246
992401.19518280029297
991362.95099258422852
990365.62868881225586
989396.22418785095215
988439.19242286682129
987481.10554695129395
986514.06957626342773
985537.95038414001465
984556.79351806640625
983573.11566925048828
982584.70370864868164
981587.72915649414062
980579.38800048828125
979558.61584091186523
978528.72229194641113
977493.70647239685059
976454.14629554748535
975405.22691535949707
974342.32378578186035
973264.14933586120605
972171.27094459533691
971062.65056228637695
969937.26152038574219
968797.8268928527832
677966.20713424682617
677124.77914047241211
676300.77629089355469
675492.54099464416504
674697.72232818603516
673914.37370300292969
673141.49129867553711
672378.25334930419922
671623.05315017700195
670872.99021911621094
670124.76894569396973
669374.98931694030762
668621.26949119567871
667860.6357479095459
667092.66423797607422
666316.13438034057617
665533.24349975585938
664747.42393112182617
663954.76883506774902
1001012.0154361724854
999774.39680671691895
998539.37909698486328
997310.46707153320312
996095.37224388122559
994904.44614028930664
993750.44080543518066
992645.98108673095703
991596.92446136474609
990598.41837310791016
989636.20056343078613
988692.57817077636719
987754.15709686279297
986814.17222785949707
985872.47384643554688
984930.55170631408691
983986.04326438903809
983032.93951606750488
982066.91012573242188
981088.48932075500488
980101.86122131347656
979110.34744262695312
978114.418701171875
977110.50158882141113
976090.50478935241699
975047.44656753540039
973980.06757736206055
972891.12479019165039
971782.94517707824707
970656.93270683288574
677128.9560489654541
676284.44179344177246
675456.6280517578125
674643.7606258392334
673844.19039916992188
673056.82837867736816
672280.66585731506348
671514.068359375
670754.29475593566895
669998.18887138366699
669242.12540054321289
668483.02878761291504
667717.02658462524414
666942.53300857543945
666157.79819107055664
665364.3864917755127
664565.83810424804688
663758.16607475280762
1000274.2306118011475
998970.10777473449707
997682.65721130371094
996421.00757217407227
995193.67895317077637
994008.2482795715332
992873.21152496337891
991795.78560256958008
990775.31776809692383
989800.81559944152832
988856.93572616577148
987930.4271354675293
987011.94478797912598
986097.5694522857666
985185.3417797088623
984269.43181228637695
983341.97022819519043
982400.21136093139648
981448.63834762573242
980492.93865585327148
979534.48134422302246
978569.49297332763672
977591.91769790649414
976595.58132743835449
975575.0608959197998
974528.68470573425293
973458.42670440673828
972367.53175926208496
677393.76611328125
676529.42406272888184
675681.88138198852539
674850.23599815368652
674033.14955711364746
673229.19544792175293
672436.73248672485352
671653.76595115661621
670877.60173034667969
670105.31967163085938
669333.67653846740723
668559.92362022399902
667780.60167694091797
666993.9407844543457
666197.9104118347168
665392.8580150604248
664581.94488334655762
663761.49907875061035
999593.70603561401367
998245.86360549926758
996935.23762702941895
995666.82682800292969
994443.55355072021484
993271.22309875488281
992157.07939147949219
991103.33240127563477
990103.91440391540527
989147.8748893737793
988223.48002052307129
987319.83398246765137
986429.98282814025879
985548.15053749084473
984665.37349319458008
983770.55974388122559
982857.85806274414062
981930.3267993927002
980993.59875679016113
980048.54328727722168
979092.92339515686035
978124.17464065551758
977141.15711975097656
976142.57679176330566
975126.48710632324219
974090.50581169128418
973032.94608688354492
677094.20417976379395
676224.23790168762207
675369.65721702575684
674529.64868927001953
673702.09099006652832
672884.22022247314453
672073.37685585021973
671267.26989555358887
670464.28537750244141
669662.51925659179688
668860.3200569152832
668055.28476524353027
667246.17152404785156
666431.18818473815918
665609.60235977172852
664783.4962043762207
663948.45451354980469
1001806.3834781646729
1000381.4799327850342
998990.79458999633789
997639.92061805725098
996334.11177062988281
995076.8361930847168
993873.47010231018066
992729.70416450500488
991647.07357406616211
990621.0727710723877
989643.8699893951416
988706.02060127258301
987800.16865730285645
986920.9067268371582
986062.8319263458252
985215.39787673950195
984362.51162910461426
983490.68632125854492
982595.71691513061523
981681.11687088012695
980751.1644172668457
979808.45388984680176
978855.32998466491699
977894.81768798828125
976928.06533813476562
975951.416259765625
974957.03200149536133
677087.67457962036133
676211.51374816894531
675346.46732711791992
674489.80435371398926
673638.62950134277344
672790.85642242431641
671945.15164566040039
671100.74411010742188
670256.54376029968262
669411.90266799926758
668565.7771167755127
667718.29829978942871
666869.22998428344727
666018.0471248626709
665166.38868713378906
664308.80928611755371
1002320.6951332092285
1000895.8049850463867
999502.90057754516602
998141.39522743225098
996816.7110710144043
995538.46658706665039
994316.23003768920898
993155.8741512298584
992055.10304260253906
991005.20894432067871
989996.80945014953613
989024.6924877166748
988089.51894760131836
987192.38887596130371
986328.98739814758301
985486.20230102539062
984646.45623397827148
983795.06575965881348
982925.39136123657227
982037.07401275634766
981132.61714935302734
980214.39427757263184
979285.39115524291992
978348.80459403991699
977405.8394947052002
976452.76949882507324
975482.70088577270508
974489.52313804626465
677008.61150169372559
676119.0587158203125
675234.19361114501953
674351.34245300292969
673468.73896026611328
672585.54581832885742
671701.58576583862305
670816.46404266357422
669930.37747764587402
669043.4173526763916
668156.8278923034668
667271.56853866577148
666387.44859313964844
665505.74837112426758
664620.27813339233398
1001490.2780055999756
1000113.1132221221924
998759.07820129394531
997433.39771461486816
996149.65160942077637
994920.40230560302734
993750.63405418395996
992634.13848495483398
991557.77034759521484
990511.44050788879395
989493.88562965393066
988512.58210754394531
987574.40552711486816
986677.42209815979004
985809.75743675231934
984955.23736953735352
984100.0830135345459
983236.89564323425293
982362.92161560058594
981477.04025268554688
980579.05599594116211
979669.39158630371094
978748.48150825500488
977815.75362586975098
976869.28083610534668
975906.02449226379395
974922.81504249572754
677112.18096923828125
676200.27765083312988
675289.21637916564941
674377.32538795471191
673463.6569995880127
672548.07914543151855
671630.56378936767578
670711.85974502563477
669792.65671920776367
668874.83380508422852
667960.16595840454102
667048.64918899536133
666141.21990585327148
665230.62377548217773
1000859.6434707641602
999514.94858932495117
998191.70246505737305
996907.38820648193359
995676.53351020812988
994499.33089447021484
993363.6712703704834
992254.84136962890625
991163.09904479980469
990091.32700347900391
989051.09816932678223
988053.85138893127441
987101.63621520996094
986186.2217903137207
985295.34896087646484
984418.48858833312988
983548.71529197692871
982680.92369842529297
981809.5184268951416
980928.14171028137207
980032.20792388916016
979119.45461082458496
978189.53972434997559
977242.14872550964355
976276.84359931945801
975293.41348266601562
677341.93740844726562
676401.46516036987305
675459.58822059631348
674515.16791915893555
673568.02616500854492
672618.55417442321777
671668.06861686706543
670717.75151824951172
669769.88194847106934
668826.60146713256836
667888.1279354095459
666955.40427589416504
666020.50507354736328
1000386.2673511505127
999070.04672431945801
997791.14507102966309
996562.20642852783203
995378.7960033416748
994225.47219085693359
993085.96255683898926
991951.99524116516113
990828.69114112854004
989730.58580017089844
988671.62336730957031
987657.01992988586426
986683.72005844116211
985744.78575325012207
984833.82396697998047
983945.3001766204834
983072.02433395385742
982203.80228805541992
981329.7015209197998
980440.0139274597168
979530.22923278808594
978600.64238929748535
977652.27518272399902
976684.85603141784668
975698.06295204162598
677692.47807884216309
676722.69029808044434
675749.32658576965332
674772.40173530578613
673792.8519458770752
672812.33025550842285
671832.01458168029785
670853.99808502197266
669880.55141830444336
668912.58390808105469
667951.79630088806152
666990.32041358947754
1000070.4802131652832
998796.49897003173828
997567.49779510498047
996375.78444862365723
995203.79740333557129
994034.93666458129883
992863.35843467712402
991695.52768707275391
990546.39808082580566
989430.93446922302246
988357.25410079956055
987326.48289680480957
986336.98490142822266
985387.53180694580078
984474.30378341674805
983588.04103088378906
982714.80799674987793
981839.46768188476562
980950.39902496337891
980041.87431907653809
979113.58158302307129
978166.04597663879395
977197.06128120422363
976205.47446441650391
999883.37713623046875
998647.6462345123291
997444.19079780578613
996254.68598747253418
995062.40092849731445
993861.87221908569336
992660.2446403503418
991471.85854530334473
990310.91053581237793
989185.99267196655273
988101.4149284362793
987060.76731300354004
986067.44938850402832
985120.81682777404785
984211.65968322753906
983324.00251770019531
982440.44490623474121
981548.33650779724121
980641.37541580200195
979716.75533676147461
978772.01056289672852
977802.64595413208008
976806.90524864196777
998641.20222091674805
997428.25950241088867
996209.15859985351562
994978.05084800720215
993742.70537567138672
992517.64244842529297
991316.52813529968262
990148.05253410339355
989017.9417724609375
987931.51412582397461
986894.16702651977539
985907.94833755493164
984965.81236457824707
984052.37052917480469
983150.36624526977539
982247.28451728820801
981335.57312393188477
980409.77845191955566
979463.12776184082031
978489.80462837219238
977488.74407005310059
994896.64443397521973
993634.79847526550293
992394.4682445526123
991185.96330070495605
990014.8093090057373
988885.28190994262695
987803.51309013366699
986774.00112152099609
985793.03202247619629
984847.76972389221191
983922.46012496948242
983004.22270584106445
982083.02520370483398
981149.0365161895752
980192.78623962402344
979209.74104118347168
978201.56516647338867
991031.97236061096191
989867.60488891601562
988744.99472236633301
987669.27707672119141
986641.78470611572266
985655.37369537353516
984697.35820198059082
983753.69797134399414
982812.33534049987793
981861.60398864746094
980892.11786270141602
979900.23871231079102
978888.4365062713623
990882.00533676147461
989725.92030906677246
988610.80324554443359
987541.30667877197266
986514.56989097595215
985520.65083885192871
984546.24746894836426
983578.4390697479248
982606.41601943969727
981621.83917808532715
980622.23552322387695
979609.96928024291992
1117737.893611907959
1116584.9377822875977
1115438.4972267150879
1114284.3382797241211
1113126.1904354095459
1111974.4130630493164
1110832.8100967407227
1109693.5627861022949
1108541.6999378204346
1107363.8502178192139
1106153.7529926300049
1104913.1904430389404
1103649.8739891052246
1102373.0030899047852
1101088.8243789672852
1099798.5004539489746
1098499.6365909576416
1097190.7354984283447
1095874.1036186218262
1094557.6552104949951
1120277.5681476593018
1119094.8259353637695
1117949.2097358703613
1116807.8445854187012
1115654.6005001068115
1114493.6637535095215
1113337.7786064147949
1112192.6882553100586
1111049.728343963623
1109891.3264961242676
1108701.0925998687744
1107472.3568935394287
1106209.7415542602539
1104925.4259262084961
1103631.3526763916016
1102333.0870494842529
1101028.6871490478516
1099713.2791042327881
1098385.8553657531738
1097051.6879043579102
1095721.0280475616455
1094408.0138511657715
1124091.5164012908936
1122775.7056674957275
1121530.3628692626953
1120351.2354278564453
1119210.0253753662109
1118071.4834003448486
1116917.3885860443115
1115752.9412746429443
1114592.6673755645752
1113443.4823894500732
1112296.2600116729736
1111130.1546268463135
1109926.4939880371094
1108678.7103118896484
1107393.8743858337402
1106087.9934406280518
1104776.2579307556152
1103463.648380279541
1102145.0130081176758
1100813.4423446655273
1099468.5603885650635
1098118.653844833374
1096776.8496723175049
1095457.8017883300781
1094175.6228218078613
1092940.6988906860352
1126589.7467880249023
1125221.7382507324219
1123906.7476062774658
1122662.4284038543701
1121486.0974540710449
1120347.7773036956787
1119209.7760372161865
1118052.4907035827637
1116881.5956611633301
1115713.8786392211914
1114558.4093322753906
1113405.2790546417236
1112231.1947422027588
1111015.1527194976807
1109750.1278038024902
1108445.8772125244141
1107122.1124610900879
1105796.2585830688477
1104472.5698280334473
1103143.1508235931396
1101798.6255512237549
1100438.8735256195068
1099075.014892578125
1097722.8859596252441
1096397.8935775756836
1095112.921911239624
1093876.5255527496338
1092691.7126922607422
1128976.3347511291504
1127576.4471759796143
1126209.5998401641846
1124893.6480140686035
1123648.3959293365479
1122472.2409515380859
1121334.8058261871338
1120196.2949981689453
1119035.6403617858887
1117859.0056972503662
1116685.0141067504883
1115524.097282409668
1114365.9061737060547
1113184.4808807373047
1111956.2194957733154
1110674.4118804931641
1109351.2756576538086
1108010.1978359222412
1106670.7786197662354
1105336.8493347167969
1103997.8752136230469
1102641.9341163635254
1101269.2362022399902
1099893.7083930969238
1098533.9910697937012
1097205.993824005127
1095920.6909770965576
1094684.49440574646
1093499.4618816375732
1092363.9193363189697
1131225.7474212646484
1129799.7945613861084
1128404.2494010925293
1127038.2501316070557
1125721.180196762085
1124474.694242477417
1123298.7811985015869
1122161.6787052154541
1121021.2734661102295
1119855.491060256958
1118671.1542377471924
1117489.2483692169189
1116321.8856964111328
1115158.5873851776123
1113971.2618808746338
1112734.0087699890137
1111439.5818729400635
1110102.280725479126
1108748.3831386566162
1107399.2894687652588
1106058.4153175354004
1104712.5454902648926
1103347.795654296875
1101964.669506072998
1100579.5063514709473
1099212.9880561828613
1097881.465991973877
1096594.8603744506836
1095357.4113540649414
1094170.6942462921143
1093034.3223114013672
1091944.861177444458
1131864.3912906646729
1130444.7912197113037
1129051.7473430633545
1127685.4112796783447
1126366.4368896484375
1125118.4061870574951
1123941.8438663482666
1122804.197452545166
1121662.0080490112305
1120492.4807071685791
1119302.8373374938965
1118115.5804767608643
1116943.8657150268555
1115776.3642673492432
1114583.171802520752
1113336.8130474090576
1112030.2273921966553
1110679.8707408905029
1109314.9118328094482
1107957.7824554443359
1106611.0053882598877
1105259.6834945678711
1103888.1764736175537
1102497.2260131835938
1101104.9717845916748
1099734.0473175048828
1098400.9739246368408
1097114.4334049224854
1095877.3730869293213
1094690.8367156982422
1093555.2268409729004
1092468.3587913513184
1091425.8982391357422
1207459.4224834442139
1205245.1566314697266
1202991.3361377716064
1200712.9083824157715
1198467.7844581604004
1196325.2516059875488
1132305.7925243377686
1130890.6147041320801
1129499.2241706848145
1128132.4279632568359
1126812.0981464385986
1125562.741605758667
1124385.3534145355225
1123246.7211685180664
1122102.1044750213623
1120928.0610599517822
1119732.6836109161377
1118539.8459224700928
1117363.7601718902588
1116193.0438709259033
1114996.4602012634277
1113744.9800701141357
1112431.5181827545166
1111073.7144432067871
1109702.3665981292725
1108340.6779003143311
1106990.7793884277344
1105636.3626194000244
1104260.5685195922852
1102864.3104972839355
1101467.2689247131348
1100093.1564617156982
1098758.4996490478516
1097471.3294219970703
1096233.4993076324463
1095045.9795379638672
1093909.9720973968506
1092824.4832820892334
1091785.0310840606689
1090787.2582778930664
1210058.1487731933594
1207855.289737701416
1205630.8357810974121
1203362.7400798797607
1201066.7625141143799
1198806.0317974090576
1196652.1908206939697
1132537.5756797790527
1131124.351095199585
1129733.340202331543
1128365.7890892028809
1127044.3945064544678
1125794.2732200622559
1124616.3887500762939
1123477.2512245178223
1122331.5202617645264
1121155.3204936981201
1119957.2646827697754
1118761.8225765228271
1117583.7764625549316
1116411.3458385467529
1115212.4321403503418
1113957.3414478302002
1112639.1065082550049
1111276.3862972259521
1109901.2318592071533
1108537.1432933807373
1107185.492130279541
1105829.3851776123047
1104451.4484920501709
1103052.5174179077148
1101653.0365791320801
1100277.4087104797363
1098942.3000564575195
1097655.214017868042
1096417.4896011352539
1095230.1531829833984
1094094.6219291687012
1093010.4671459197998
1091972.8970508575439
1090976.81125831604
1090015.2147598266602
671972.7370433807373
671308.98562049865723
670654.71609115600586
670008.8302059173584
669369.56783103942871
668731.98153877258301
668093.88451194763184
667449.97461891174316
666800.41183853149414
666144.41147041320801
665478.83807754516602
1001494.7332897186279
1000387.5615615844727
999293.96254348754883
998206.98908615112305
997116.63228416442871
996017.00565338134766
994907.59133720397949
993791.58796882629395
992672.40327835083008
991550.22521591186523
990421.76846885681152
989284.68892097473145
988138.78435325622559
986984.90400695800781
985825.1277961730957
984663.60576820373535
983503.05465126037598
982344.50329208374023
981191.42923736572266
980053.7999210357666
978943.98058319091797
977868.32300758361816
976820.39272308349609
975784.07046127319336
974742.66092491149902
973686.78709983825684
972616.27795791625977
971535.65285491943359
970450.44698333740234
969368.7662525177002
968300.46416282653809
967252.7841796875
966226.66944122314453
965215.9918098449707
964209.87440299987793
963196.45936393737793
678337.04072380065918
677556.19466781616211
676784.53136825561523
676024.21274566650391
675276.87777900695801
674542.63599967956543
673819.90330123901367
673106.2608642578125
672399.84714317321777
671700.03146362304688
671007.35348701477051
670322.31661033630371
669644.89150047302246
668972.88959693908691
668303.75655555725098
667632.61990737915039
666958.0910530090332
666276.63356971740723
665590.14346504211426
664899.25208854675293
664201.2656192779541
1001866.8560810089111
1000769.5936012268066
999682.87561416625977
998591.91266822814941
997483.81514549255371
996356.61716270446777
995218.49236106872559
994079.95273208618164
992948.88345336914062
991825.60676193237305
990704.73462295532227
989581.63839721679688
988455.45965003967285
987327.10771751403809
986198.2978572845459
985071.59753799438477
983948.12507629394531
982826.14678573608398
981704.90658378601074
980589.58891487121582
979490.08499526977539
978413.40716361999512
977357.15239143371582
976309.54583358764648
975256.86289405822754
974191.49114990234375
973113.44560432434082
972025.45069122314453
970931.35820007324219
969837.79228973388672
968754.39729499816895
967689.21761703491211
966643.84473037719727
965612.05636978149414
964581.70977973937988
963539.63484764099121
677639.58140563964844
676834.53777885437012
676039.27448463439941
675256.05637359619141
674486.95127296447754
673732.59410285949707
672991.77544403076172
672261.99008750915527
671540.65943717956543
670825.82904434204102
670116.47284507751465
669411.74380874633789
668710.6957950592041
668010.82025527954102
667309.78346252441406
666603.86843299865723
665893.35479164123535
665176.83327293395996
664457.77973175048828
663737.70698356628418
663013.35846900939941
1001338.5807342529297
1000247.656551361084
999140.82758140563965
998005.41669273376465
996846.28499984741211
995681.23037910461426
994527.96673965454102
993395.04256439208984
992278.97426605224609
991171.09061813354492
990066.73163604736328
988967.06843185424805
987873.660400390625
986785.80290603637695
985701.55915069580078
984618.87164115905762
983534.02384376525879
982443.77033615112305
981349.94790649414062
980260.34585762023926
979182.75627899169922
978117.71324157714844
977056.95449447631836
975990.18414878845215
974912.57161712646484
973824.41312217712402
972727.56034660339355
971623.67006492614746
970517.79874801635742
969418.62996482849121
968333.6782054901123
967264.36736679077148
966204.0144214630127
965140.74745941162109
676156.65745735168457
675342.23972511291504
674540.77947998046875
673754.83804512023926
672985.49346542358398
672231.66260719299316
671490.42632865905762
670758.07998657226562
670030.95157051086426
669306.09272575378418
668581.14687347412109
667854.54035377502441
667124.53871917724609
666390.58843994140625
665651.48374938964844
664909.81484031677246
664166.11588859558105
663424.54073143005371
662686.42877578735352
661946.51202011108398
1001943.2274971008301
1000831.4196796417236
999696.05311965942383
998528.82376670837402
997342.34972763061523
996161.4378833770752
995006.5513744354248
993882.74627494812012
992781.68457412719727
991693.0870361328125
990613.55979919433594
989546.56729698181152
988493.78695487976074
987450.96161270141602
986410.73622512817383
985367.30660057067871
984316.69826126098633
983256.10811996459961
982186.79546356201172
981115.21854400634766
980047.91717529296875
978984.70938873291016
977918.61304664611816
976842.55380058288574
975755.71053886413574
974660.50209617614746
973558.85238075256348
972451.39154243469238
971339.93104934692383
970229.22483825683594
969124.5718936920166
968027.78835868835449
966934.49329566955566
965835.24981689453125
675554.80110931396484
674724.12659645080566
673908.53059196472168
673111.09407615661621
672332.80891227722168
671571.79695701599121
670823.78334999084473
670083.35735893249512
669345.10614204406738
668604.6171703338623
667858.7758731842041
667106.24276924133301
666346.54390716552734
665581.14460945129395
664811.53708648681641
664042.91880798339844
663278.07858848571777
662521.78654098510742
661774.85457801818848
661029.24532890319824
1001375.6355648040771
1000196.7135887145996
998994.68260192871094
997787.91351318359375
996600.57427978515625
995448.23999214172363
994332.37270355224609
993243.5975456237793
992172.52588272094727
991117.7131175994873
990083.54221725463867
989070.54899215698242
988070.26716613769531
987070.16809272766113
986061.20613479614258
985039.80291938781738
984006.88741302490234
982967.03748512268066
981926.24043464660645
980886.15112495422363
979840.97689628601074
978782.22224426269531
977705.70167922973633
976615.18190956115723
975517.36201477050781
974415.84888648986816
973310.03872871398926
972197.38280868530273
971078.60922813415527
969957.53635787963867
968838.11600494384766
967719.51364898681641
674248.89559364318848
673420.76140975952148
672613.80985069274902
671828.77058410644531
671062.45051002502441
670308.54904174804688
669559.52501487731934
668808.52084541320801
668050.79242324829102
667284.07929229736328
666508.65156555175781
665725.91050148010254
664938.81638717651367
664149.8890380859375