/*--------------------------------*- C++ -*----------------------------------*\
  =========                 |
  \\      /  F ield         | OpenFOAM: The Open Source CFD Toolbox
   \\    /   O peration     | Website:  https://openfoam.org
    \\  /    A nd           | Version:  12
     \\/     M anipulation  |
\*---------------------------------------------------------------------------*/
FoamFile
{
    format      ascii;
    class       volScalarField;
    location    "0.01";
    object      rho;
}
// * * * * * * * * * * * * * * * * * * * * * * * * * * * * * * * * * * * * * //

dimensions      [1 -3 0 0 0 0 0];

internalField   nonuniform List<scalar> 
106891
(
1.163046406869049143
1.1630014770251657641
1.162952447273347012
1.1629004337761765786
1.1628542835190340821
1.1628129702706908599
1.1627871128944349266
1.1627737429679176895
1.1627817368012436372
1.1628044412504663363
1.1628388109170892939
1.1611160774457736089
1.1612071926398614963
1.1613509866114484215
1.1614507949479224713
1.1614443952072046606
1.1613300518034348485
1.1611698736596292036
1.1610580503900076454
1.1610725224321798432
1.161234419506097737
1.1614882740611194301
1.1617257654896595565
1.1618353516110035972
1.1617639064347238254
1.1615388419498167138
1.1612461663310613691
1.1609767366803407374
1.1607833050456115576
1.1606721138267743765
1.1606136803573541272
1.1605786046000194922
1.1605564674464878827
1.1605405268054285184
1.160518877473145638
1.1604607989791870803
1.1603365115000046082
1.1601379473164121769
1.159895206807030954
1.1596683544666674948
1.1595244637810084853
1.1595012445316081884
1.1595946052485277544
1.1597664072372038113
1.1599694109410172427
1.1601603871806842605
1.1603084747405820742
1.16038788395660597
1.1603830827898333755
1.1626576935181585082
1.1627375716860508525
1.1628302524881732882
1.1629265183938193307
1.1630160780303835377
1.1630889760533045241
1.1631377281108530308
1.1631583396677191988
1.1631510479173230443
1.1631192921589572631
1.1630679154809091536
1.1630054827026110598
1.1629364864223024068
1.1628722499524279943
1.1628142040962310411
1.1627740449678412027
1.1627490400669107107
1.1627467168562028998
1.1627603249900024807
1.162786126007763654
1.161276667556858655
1.1613404851413828833
1.1613625447161126658
1.1613005292416087588
1.1611589234012222871
1.16099537049763879
1.1608916309417991464
1.1609143633440748289
1.1610782152702123771
1.1613275826353404163
1.1615580926402182538
1.1616639901249523614
1.1615938422940106367
1.1613723922576824066
1.1610838203643261135
1.1608178825598174377
1.160630327916533755
1.160525172041679598
1.1604751248698228494
1.160454234892675851
1.1604510463167467815
1.1604627168672732029
1.1604744413632055444
1.1604524228550217035
1.1603607530133175363
1.1601814641561845054
1.1599384834891914853
1.1596891362786991841
1.1595027263139348062
1.1594283586176450385
1.1594728517339514262
1.1596084110512534515
1.159793671153529937
1.1599853636197055007
1.1601489032978835603
1.1602534131327721934
1.1626570034771850359
1.162729959822780712
1.162823426787203962
1.1629282823951521131
1.1630330379730207113
1.1631252807369105717
1.1631935850821903955
1.1632295389555387111
1.1632298566921290828
1.1631965040360991992
1.1631351920371795217
1.1630564326766634764
1.1629683868541342839
1.1628853552285107753
1.1628114770730466621
1.1627595288609522406
1.162726861330299899
1.1627191398649325826
1.1627289303020393874
1.1627516124460532954
1.1614541746961384305
1.1614106596870465982
1.1613146084834951033
1.1611587125741491544
1.1609800566427777024
1.1608329067736240514
1.1607756666115227606
1.1608446794598805685
1.1610281092559935345
1.1612610398959728464
1.1614457225545744556
1.1614969825987555563
1.1613841463961849243
1.1611422332799425927
1.1608537023712131031
1.160602265921466314
1.1604346047446099099
1.1603501689232591509
1.1603191001538404326
1.1603132417972241708
1.1603177245258857742
1.1603299350436304671
1.1603392541581438735
1.1603235218112208926
1.1602536767463964562
1.1601091982108953093
1.1599062226343834769
1.1596867008906592833
1.1595095251767324473
1.1594220565866490968
1.1594362874555448339
1.1595383746960654658
1.1596963222109895053
1.1598777495090848433
1.1600502389228830591
1.1601832530271760646
1.16283228293948393
1.1629161751481815745
1.1630161399750287288
1.1631196275930568707
1.1632122723494477956
1.1632805380171917786
1.1633141627587477718
1.163308267812334762
1.1632643135254603362
1.1631889621488447073
1.1630942410066444914
1.1629911588208965423
1.1628959278656787468
1.1628145447771913723
1.1627596640574602294
1.1627277307118757399
1.1627218115274373655
1.1627327872611725734
1.1627548125060886974
1.1614403844176499625
1.1612658000058324603
1.1610777175620889956
1.16090479921741907
1.1607830235768361593
1.1607442959888443212
1.1608076846632606749
1.1609572681377156034
1.1611399724868729511
1.1612768126226267196
1.1613020059030350062
1.1611914661642415147
1.1609734879926312257
1.1607110101637601041
1.1604714587847291263
1.1602940291381553806
1.1601883905698426869
1.1601411223833435482
1.1601308781470163201
1.1601436671681797375
1.1601684697776841748
1.1601917331476452322
1.160194359374525197
1.160152186977203792
1.1600479654792170692
1.1598844370370686718
1.1596952955594170831
1.1595298292048896727
1.1594308927167775725
1.1594222619081659964
1.1595029796772375885
1.1596488055088383096
1.159830004923959379
1.1600131455075077813
1.163027678648583807
1.1630636798587818959
1.1631246847635086095
1.1632015400465227639
1.1632816269099779394
1.1633505926792628848
1.1633950360725857642
1.1634051789669204169
1.1633766257639697184
1.1633116885919263517
1.1632187685712889191
1.1631117232009586804
1.1630038669725017986
1.1629114624031848813
1.1628397681496391858
1.1627984895233993701
1.1627811068848148413
1.1627868465606541193
1.1628042508874427696
1.1628263520230699424
1.1615767870753304081
1.1613412682907793272
1.1611428332123892027
1.1609862634583361096
1.1608772563997835636
1.1608185962604824493
1.1608097626538584901
1.1608433723672173521
1.1608933206731484322
1.1609301000581457863
1.1609226607143683374
1.1608551763847976268
1.1607284638670112287
1.160562626235910777
1.1603851803854681179
1.1602265228713946055
1.1601100543619282668
1.1600467446908080404
1.1600323947821802317
1.1600566634484206219
1.1600995243733982498
1.1601360279064758529
1.160148685449964967
1.1601209311550781944
1.1600455182756104211
1.1599194314106149317
1.1597643223682032598
1.1596150913874716526
1.1595104257814528026
1.1594834679943963884
1.1595446839408911632
1.1596810013388227922
1.1598646174705140588
1.1634266566349931171
1.1634450840536243454
1.1634743796401945115
1.1635042073237829019
1.1635226153047906195
1.1635185712299365157
1.1634849522478212247
1.1634196224876578452
1.1633272582870619605
1.1632185361843343507
1.1631083062567848518
1.1630106222543870054
1.1629397226316058322
1.1628979204184273222
1.162889133438122391
1.1629018099664174546
1.1629298484925427726
1.1629588578806426824
1.1629812787285829234
1.1614401346019571637
1.1611786050121264413
1.1609935343121333684
1.1608818344284832502
1.1608286199897832613
1.1608083975648664232
1.1607967440772593015
1.160773574471846814
1.1607292582827040128
1.1606658939182921131
1.1605839164215092651
1.1604817583227997613
1.1603608872641613114
1.1602279001745223752
1.16010553959817031
1.160017150152047094
1.1599809162325440681
1.1600027574964062449
1.1600571047852399342
1.1601155423771263298
1.1601587500725967228
1.1601717995301057407
1.1601520125654232185
1.1601007979468040965
1.1600193610947797662
1.1599117414659674274
1.1597948481696092049
1.1596978731152733921
1.1596510196039981899
1.159673431436798019
1.1597685054208326516
1.1599135158913258525
1.1638833879034065077
1.1638415738143754741
1.1638026409905382064
1.1637606372092368368
1.1637079747557885767
1.1636383021494802747
1.1635491129387067755
1.1634421779409809261
1.1633250750941963592
1.1632098004322630747
1.1631102236482084855
1.163038492156263537
1.1630045287022383604
1.1630065419044350872
1.1630420375160568369
1.163094131204123638
1.1631510239931424078
1.1631946166365940698
1.1632170316743217775
1.1614566769363379173
1.1612401853498144355
1.1610863405811309157
1.1609871214437146314
1.1609248728542986839
1.1608752231249557241
1.160813810417467451
1.1607260274636985731
1.1606079141556515655
1.1604644598093969421
1.1603084301630446351
1.160157648584207335
1.1600287846296342131
1.1599455493227488478
1.1599242842952948163
1.1599686331198206801
1.1600629245511235865
1.1601764864506043384
1.1602724956806378387
1.1603309644142525414
1.1603485159585671394
1.1603320224476250111
1.1602902580602136862
1.1602268872719017079
1.1601341335403347887
1.1600197251740904658
1.1599054727208433224
1.159824715945190432
1.1598040533320166379
1.1598425274530890228
1.1642481949438239219
1.1641329100369528504
1.1640120172718591007
1.1638853387670300421
1.163752090712551146
1.1636139300660379714
1.1634758878379378721
1.1633469442336297206
1.1632383840001281339
1.1631614970539869702
1.1631251242425049153
1.1631338004515361373
1.1631818043138775209
1.1632613214994738104
1.1633511415312967063
1.1634348793996378557
1.1634911922060502398
1.1635120357795181167
1.1617546790298933779
1.1615418831113455411
1.1613371329795174614
1.1611551699901780932
1.1610039486589245339
1.1608782536884381109
1.1607558497468095648
1.1606142650232815772
1.1604423554749556668
1.1602548450212641917
1.1600706668946920708
1.1599228404002455139
1.1598378114209384471
1.1598283176299102326
1.1598989562264012676
1.1600373319966090779
1.1602164316060334937
1.1604014188844815614
1.160558834204576506
1.1606696548058113017
1.1607243589005722395
1.1607206223947599266
1.1606542269460098371
1.1605321064196303382
1.1603669448850129076
1.1601938937571620869
1.1600504022032842588
1.1599545357657279343
1.1646038844118205002
1.1644287816084877285
1.1642464054730092826
1.1640635891800799051
1.1638861773842623659
1.1637203547366488099
1.1635721079005212353
1.1634490781221631384
1.1633597444599024229
1.1633109299562405248
1.1633072223589930871
1.1633482600344071667
1.1634258449971301985
1.163529135247322488
1.1636362758017111396
1.1637305586437627358
1.1637897044261571455
1.1638068063374285011
1.1620089168882050679
1.161699468673597746
1.1614096088811287633
1.1611775985575374381
1.1610181217502915096
1.1609027840504040352
1.1607887195475568021
1.1606442059486745677
1.1604663688527465659
1.1602669401896794632
1.1600757908615755287
1.1599247140179347326
1.1598540389056430921
1.1598932801480177357
1.1600436352314416055
1.1602820948228971254
1.1605690038404892217
1.160848883608852411
1.1610699282893557349
1.1611978498033701523
1.1612131019408009625
1.1611146601974731141
1.1609248966062231112
1.1606821947482433011
1.1604264891014555161
1.1601928180087526243
1.1599969321300420688
1.1646601712357633751
1.1644567409155239801
1.164258790002270505
1.1640760974073041112
1.1639166415447952385
1.1637856216991673275
1.1636874229443945339
1.1636252509902536012
1.1636004715148700051
1.163613877391082907
1.1636620051512427398
1.1637372496931797095
1.1638296579233762262
1.1639212263053455576
1.1639990652868976717
1.1640427049610668764
1.1640480260787717803
1.1627323026583389343
1.1623970599609343424
1.1620567899624107966
1.1617673493670510609
1.1615653649538797421
1.1614431608626964998
1.1613601110403988237
1.1612598018103963415
1.1611035227776558276
1.1608717406255832927
1.1605910867840500966
1.1603088872876110571
1.1600865699549063326
1.1599809133033680553
1.1600280874666111242
1.1602298046888306349
1.1605487363056243844
1.1609125666292052781
1.1612467121841389961
1.1614943825617469741
1.161617698008523325
1.1616011412638755917
1.161453312406916627
1.1612028130730673858
1.1608961053308539668
1.160580749390988986
1.1602875220346826612
1.1646777774746777112
1.1645046234522342665
1.1643504583390669183
1.1642226492190135279
1.1641242274219893993
1.1640556578536858101
1.1640151540599197322
1.1639994401013942227
1.1640062397012462814
1.1640309747732986434
1.1640693081899695649
1.1641154743617183609
1.1641592389841739497
1.1641946604064490334
1.1642053737841233652
1.1641910521781377863
1.1629902063685251257
1.1627312605904347453
1.1624265516620813088
1.1621259435462081289
1.1618676734131907491
1.1616681150278946877
1.1615341435081822929
1.161448433426541138
1.1613668339183134126
1.1612345414001115085
1.1610239434076436993
1.1607439825772503106
1.1604543178534807435
1.16024146165185571
1.1601745487653500888
1.1602831338992409815
1.1605437413654506873
1.1608936808804866114
1.1612571161687208487
1.1615677693774271173
1.1617753306522902168
1.1618449143488391861
1.1617618190669540823
1.1615391360958084999
1.1612121079609287744
1.1608308092079195895
1.1604404827415495394
1.1600802719887042258
1.1647603961368266923
1.1646415658085307321
1.1645448036302974426
1.1644731829121006683
1.1644250571241883119
1.1643958975853694326
1.1643794238507931826
1.1643711687421853807
1.1643658373364358383
1.1643618879317219061
1.1643568741396399524
1.164347009546506273
1.1643333141499903061
1.1643050054244201696
1.1642659331498708131
1.1626367605001115546
1.1624015872623469914
1.162169464508463923
1.1619513575009650097
1.1617649446036530936
1.1616318466186092984
1.161560776514595883
1.1615151718408709414
1.1614389760709431521
1.1612743686090016837
1.1610164115681860242
1.1607227061394120859
1.1604897392229061026
1.1604014286847439408
1.1604933889318764795
1.1607360139912055175
1.161060261196811938
1.1613898292777313781
1.161660230340604727
1.1618294452749102774
1.1618708438631013546
1.1617707665572987175
1.1615399157706061128
1.161205694314247916
1.1608101520251834504
1.1604015241626080002
1.1600264517882743487
1.1648721703649695947
1.1647976686696748239
1.1647432091466585202
1.1647081811321995382
1.1646873241496855655
1.1646723048031157877
1.1646568798856962168
1.164634543946472478
1.1646047415506215472
1.164566908901320641
1.1645212684527390667
1.1644732914854099004
1.164415962244724323
1.1643554888899485533
1.1623096840863873513
1.162127247719012324
1.1619471884212728696
1.1617887548059591118
1.1616827958805802101
1.1616401170321983827
1.161632329685026388
1.1615989023070756314
1.1614759993267207427
1.1612640773563329688
1.1610225685607991064
1.1608386927122482657
1.1607854572948554939
1.1608803228089648041
1.1610839467887386078
1.1613321878444391455
1.1615665326293032056
1.1617495128461066134
1.1618595626353056538
1.1618767401476801648
1.1617873645403051786
1.1615834291967512826
1.1612748237580372557
1.1608951004813816699
1.1604950421178026332
1.1601280070436981173
1.1649838061669293143
1.1649436340111496424
1.1649206848479125576
1.1649096312176303591
1.1649015664842428119
1.1648890936069107305
1.1648643280367605435
1.1648263532546054844
1.1647748767249483937
1.1647119743818965532
1.1646448946643146449
1.1645690958822763061
1.1644923200190653301
1.162140811673209928
1.1619307568648766793
1.1617453586575585689
1.1616324417345731401
1.1616104143780183744
1.1616491481037005684
1.1616753527033991666
1.1616317985288355796
1.1615052537977910152
1.1613439260940898734
1.1612232577564747249
1.1611974246888034923
1.1612726891480353864
1.1614151022732119856
1.1615805593136676599
1.161736443845336586
1.1618659702920721699
1.1619559501117509015
1.1619883704761164722
1.1619354187610402285
1.1617716951017138527
1.1614941431211063261
1.1611288482740333983
1.1607282578999371658
1.1603525919903838748
1.1650586168699608169
1.1650504949122149068
1.1650545756982091383
1.1650615861621094194
1.1650632040816237822
1.1650504153627310178
1.1650212406102304907
1.1649744004095035077
1.1649119290435603347
1.1648410985330996947
1.1647582397740874338
1.1646715879721989406
1.161807703258439961
1.161585150103073838
1.1614556352597642519
1.1614436932041798389
1.161516428247345134
1.1616052555381632949
1.1616487477851364929
1.1616265493504356332
1.1615657446152876098
1.1615227768665283836
1.1615384761887805887
1.1616124207818268044
1.1617160279957814417
1.1618194242352202217
1.1619078283718049516
1.1619805210380529381
1.1620352085741441073
1.1620602616726307676
1.1620235703542765027
1.161892688733404011
1.1616552071800316792
1.1613278454275584028
1.1609550405406934281
1.1605919635353050268
1.1615178285149470039
1.1613825692160659742
1.161372646454885027
1.1614569207855547361
1.1615743084146543662
1.1616612553011602671
1.1616935902779543799
1.1616897145711446715
1.1616945799742350864
1.1617444055668404435
1.1618395027391557051
1.1619537396174950405
1.1620604332994797225
1.162147244388740619
1.1622172257179568255
1.1622719578736384616
1.1623015116333470509
1.1622767016541257767
1.1621629959433412704
1.161944492940071072
1.1616332322335616301
1.1612687165051538418
1.1609057158743636418
1.1613190911214117396
1.1614000558356392112
1.1615460296192869905
1.1616902156419455228
1.1617919180353326603
1.1618549022984712149
1.1619123075645771959
1.1619975174993359968
1.1621158591833344875
1.1622440961335909204
1.1623536996353511785
1.1624326263578572682
1.1624880364327665472
1.1625290310608777933
1.1625502692412028605
1.1625295368116084216
1.1624330490490046852
1.1622392867894237867
1.1619537807360846848
1.1616052515719423877
1.1612471773708581413
1.1618050872370473403
1.1619200528946433959
1.1620244820193275093
1.1621485772463540087
1.1623026883245337615
1.1624665744466851081
1.1626055464798858985
1.1626995642242976547
1.1627539603401062518
1.1627835844105038898
1.162791295373255096
1.1627624637321178902
1.1626675681759348624
1.1624791554143989458
1.162194884844651499
1.1618360604540074466
1.1614528787905995522
1.1622837532095038338
1.1624936043195472912
1.1626866465023393271
1.1628289060941505717
1.1629150071025229352
1.1629604209851593932
1.1629766131626566583
1.16295721518438544
1.1628810312540429628
1.1627184816741797935
1.1624604682606527462
1.1621214905783543436
1.1617406704019588304
1.1627730138725360653
1.1630380476155355307
1.1632256885335048313
1.1633140862844562058
1.163316380135528405
1.1632567760817988933
1.163147569223106137
1.1629837625306587157
1.1627523626621771857
1.1624495684395346196
1.1620995617977645242
1.1617394805018519399
1.1667009355040731666
1.167129095095176039
1.1676366245157532298
1.1680587362812480112
1.1682648514555866726
1.1682084574567075386
1.1679278138849473745
1.1675051813567101089
1.1669994227437301415
1.1664441258884890029
1.1658654410472455432
1.1653009486502339254
1.1648071881320152254
1.1644391053229448119
1.1642352368631894155
1.1642108888413664758
1.1643489511633426936
1.1645986397642920096
1.1648912608280543868
1.1651667714852202984
1.1665292735190633255
1.1666236867039139202
1.1669304417347676761
1.1673704487609102287
1.1677929365694963426
1.1680582886096653183
1.1680991529152773278
1.1679360186074316807
1.1676208264222258659
1.1671984260504113529
1.1666845521184652235
1.1660960360365848487
1.1654784075277773159
1.1649122920610828213
1.1644836676390002417
1.1642482842121939512
1.1642156057014649839
1.1643452727671166347
1.1645651973686341751
1.1648009878545380058
1.1650079945161675443
1.1651825063513991942
1.1668872816245889901
1.166745318058500569
1.1665995582334054426
1.1665922832123212238
1.1667930170820866032
1.1671501880955914565
1.1675218359649885969
1.1677684308830660331
1.1678203836473948218
1.1676920561699850598
1.1674391822632723681
1.1670936946735759321
1.1666481702298514556
1.1660980372213272105
1.1654827547495216766
1.1648946315766621762
1.1644423358741331498
1.1641984069769844012
1.1641688075174498884
1.1642948414647609212
1.1644884293979278489
1.1646741476494870682
1.1648230595036968005
1.1649490618038635947
1.1650913065382644263
1.1652864577155293002
1.1664953504027368858
1.1665369834324048615
1.1664721642910724775
1.1664093119653820008
1.1664667611903936084
1.1666870670738811455
1.1669954635520578545
1.1672400842469889959
1.167286651285794008
1.1671028940884529135
1.166757220966149422
1.1663528483504512767
1.1659481317005528922
1.1655303431607708653
1.1650641732834932096
1.1645578248016248413
1.1640861380471361208
1.1637556515671638735
1.1636428606080224668
1.1637462499160295959
1.1639917771538321745
1.1642772344092484627
1.1645250488437850489
1.1647121855274820135
1.1648563686458468514
1.1649860075623343914
1.1651151311781295927
1.1652410953901162216
1.1652605727489599996
1.1655521577401504185
1.1657893392249489839
1.1659267785539473294
1.1659853281760894639
1.1660179432288659829
1.1660438474463390435
1.1660113729823065043
1.1658252020984225528
1.1654319046117909142
1.1648833929771027496
1.1643151987989497353
1.1638651056764881542
1.1635843912546530721
1.1634136410416060503
1.1632483975921288355
1.1630459292390995518
1.1628570174421848371
1.1627836412117724674
1.1629030235531738757
1.1632006439636100037
1.1635743557225051159
1.1638933322647722068
1.1640663659117456152
1.1640743463107152689
1.1639544492198981018
1.1637581797578642195
1.1635255713436336578
1.1632862541329405115
1.1630762247267170117
1.1637316725706130516
1.1639511831222149052
1.1641762546181084748
1.1643167974236590112
1.1643389606230403199
1.1642875268529935262
1.164244574704704327
1.1642482665594591218
1.164248130907117984
1.1641360661266457743
1.1638359353745246771
1.1633850173043334131
1.1629118832088969349
1.1625510635950233596
1.1623453226121081006
1.162218245175566933
1.1620531356557459723
1.1618053494496098921
1.1615423348859275077
1.1613863607495837904
1.1614258721407919595
1.1616444802839962502
1.1619294878430443951
1.1621491060122206562
1.1622296173456292401
1.1621790460533900635
1.1620556714875336368
1.1619093217188172229
1.1617558241648053841
1.1615933660108332948
1.1614398123790461437
1.1613459739202354193
1.1631192435516592987
1.1633676595648316798
1.1636019614494110819
1.1637248612232060641
1.1637031993210547043
1.1635956031093912522
1.1635043996203771055
1.1634868743669897206
1.1634961404997075096
1.1634129422310355295
1.1631455278875875159
1.1627176464293058622
1.1622686234936945304
1.1619422784232558143
1.1617874538504704418
1.1617260627223346958
1.161626504036756824
1.1614261715812765896
1.1611874697957214053
1.1610405399432253137
1.1610828395264398694
1.1613065278332304064
1.1615994613342448538
1.1618300252561699626
1.161929960909329429
1.1619147567779903873
1.1618470248401737699
1.1617742608201828691
1.1617014517805106522
1.1616151295362049378
1.1615283212997080664
1.161498461430330309
1.1615939357172042623
1.166669935090904886
1.1666394824204207037
1.1669011122155494853
1.1669909619865195261
1.1666490835159999406
1.1660555282894966567
1.164362474845552109
1.1646577339746750912
1.1649312437091012828
1.1650833098494284279
1.1650803611589610753
1.1649882065557819466
1.1649190882846458539
1.1649371095119194219
1.1649952612097040916
1.1649644645902454965
1.1647439562354935383
1.1643543752702734118
1.1639361972635684506
1.1636386307895567604
1.1635173149821649297
1.163489660879428067
1.1634147093380635685
1.1632287173124389312
1.1630012870495973765
1.162877754582015033
1.1629606223783202079
1.1632386788393223043
1.163588360305395808
1.1638659995699665028
1.1640005729129940804
1.1640118206392102707
1.1639683440493457933
1.1639214202254808406
1.163872902894385053
1.1638048674990493225
1.1637313742827721796
1.1637166442888335904
1.1638376302204960222
1.1641161379536664189
1.170039677329470118
1.1695039516019332115
1.1695268760310530975
1.1698520713146935979
1.1699660910916143131
1.1696230778925633675
1.1690112938084018523
1.1686264071119110142
1.1689460422981521326
1.1692440965506638584
1.1694131956281921259
1.1694228514238160788
1.1693388486133047266
1.1692788139533807357
1.1693088912354507869
1.169381273683640643
1.1693616453490309759
1.1691466781572967815
1.168755078878762621
1.1683308603829321015
1.1680342101330656313
1.1679193289649256737
1.1679002906583941801
1.1678304621861490542
1.1676448875717744258
1.1674150274249435189
1.1672934515781829834
1.1673855653264741949
1.1676766638626860928
1.168038214179858425
1.1683196015630690212
1.168449948655591264
1.1684534234133185926
1.1684031585193779268
1.1683531392340071875
1.1683027708926136956
1.1682293137761199375
1.1681457942749260415
1.1681214738590448565
1.1682378667412851581
1.1685164308012645495
1.1688767408104383527
1.1633739656564101583
1.1634120934086695787
1.1634337644194883143
1.1634350116298730615
1.1634197260490846126
1.1633834304323971143
1.1633367697825280906
1.1632739739580244542
1.1632079302211062455
1.1631380964745208217
1.1630642883738069315
1.1608808910006531701
1.1609167967192886017
1.1609260812284258879
1.1608880710357167843
1.1608052726279947109
1.1606919269739255363
1.1605777235011105475
1.160508065734956018
1.1605225532394889409
1.1606389535297281235
1.1608303724030646364
1.1610281483697131311
1.1611546153224916456
1.1611620777348683475
1.1610538149956892706
1.1608763793658170016
1.16068362461175556
1.1605031136985552997
1.1603283253873348801
1.1601367465886585073
1.1599190518857798171
1.1596995454326808339
1.1595246611767282552
1.1594356491755499761
1.15943771911738569
1.159502655774343749
1.159580598316692468
1.1596370437185918867
1.1596551354533777278
1.1596421005653700931
1.1596220506122827398
1.1596245572856136441
1.1596729770572917761
1.1597734594474999881
1.1599165149553540832
1.1600733785353367633
1.1627754804633874119
1.1627958598258558709
1.1628288195549452144
1.162871801771456548
1.1629224395033030959
1.162978553040249885
1.1630376256686925096
1.1630966593065352743
1.1631520229070659855
1.1632000686017427427
1.163237695930585458
1.1632619052438581964
1.163273101197779491
1.1632695810886473087
1.1632569060439128528
1.1632323025137298877
1.1632059355071586726
1.1631711935272983638
1.1631370842673396382
1.1630989293876494717
1.1630533382847783042
1.1606342760287016169
1.1607207907256757995
1.1608349517782985405
1.1609226042620819364
1.1609464681815624409
1.1608890603848232015
1.160769719519108234
1.1606388459545877723
1.160560091234719593
1.1605765303423094537
1.1606818764876827288
1.1608154772153083112
1.1608929440602193672
1.1608582293933238372
1.1607086305986435981
1.1604961607888732988
1.1602895296700526107
1.1601382145659782097
1.1600447169741154863
1.1599768743290816975
1.1599021819036647862
1.1598098463707247063
1.159712488435899358
1.1596325516095509212
1.1595854362075062038
1.159570153213182131
1.1595701174421446655
1.1595697206509496535
1.1595556030607057085
1.1595275432442393448
1.1594989267490853901
1.1594918273125254249
1.1595306190317753448
1.1596282789390004453
1.1597755785298258235
1.1599425163596632782
1.1627174656803778152
1.162750921732926157
1.1627920411607974849
1.1628390515542865735
1.1628908969299771581
1.1629463222140217216
1.1630031694779219276
1.1630579323342873366
1.1631059642576282442
1.1631425579618221988
1.1631644778243874772
1.1631701443180011424
1.1631622520053672698
1.1631426581738295578
1.163119799010761346
1.1630937584142206909
1.1630752595587334763
1.1630579533974709783
1.1630473601308028986
1.1630350449712951733
1.1630150003750443499
1.1607213707366437205
1.1609427415037583131
1.1611457045419455447
1.1612444168135171996
1.1612012356972110094
1.161031449432251117
1.1607987040242491172
1.1605975335940661441
1.1604993679851185462
1.1605157503588379164
1.1605931509152898062
1.1606426343294407033
1.1605926533262875822
1.1604291441348622005
1.1602008086259634201
1.1599911605144783699
1.1598677135253439019
1.1598482444812896475
1.159900465077604359
1.1599677054706889479
1.159999289226472774
1.159967607352197394
1.159878093626221407
1.1597553613499633762
1.1596293399730264184
1.1595232985332439846
1.1594483235709622804
1.1593956394848323743
1.1593569747130676451
1.1593330678660136446
1.1593353039033926777
1.1593819029251619668
1.159487747170109051
1.1596424866689418742
1.162724238615742367
1.1627720745979428507
1.162826371658609137
1.1628870947422498272
1.162953250959109841
1.1630213821325539048
1.1630857455125140909
1.1631394579479736873
1.1631750491878229958
1.1631874156432959744
1.1631752483340302984
1.1631428671932022567
1.1630961240678057145
1.1630475544368885643
1.1630014462691840027
1.162970459201393636
1.1629505019560855139
1.1629453943871910226
1.162945058499901041
1.1629427005144807872
1.1608790489932672152
1.1611848032177469747
1.1614541176779058507
1.1615760278399858141
1.1615035078258360013
1.1612565293917578302
1.1609230454776389152
1.160615830757954825
1.1604226470210410316
1.1603635018193816375
1.1603934707196594811
1.1604253828380268754
1.1603777992191270929
1.1602257481317721499
1.1600067152953976723
1.1598044241801686027
1.1596978603068113234
1.1597248733060374626
1.1598617261304795534
1.1600389041532517265
1.1601750244647568433
1.1602090320424884862
1.1601226697097395402
1.1599430583360443858
1.1597222108238041116
1.1595152069578471554
1.1593561307754185474
1.1592485333914988033
1.1591794803905581812
1.159142419571423277
1.1591464789076821873
1.1592084002796518849
1.1593366229601662631
1.1595172238753714833
1.1627306748342263187
1.1627864952564770373
1.1628548280873045595
1.1629350949657002445
1.1630245953329112485
1.1631170304485711764
1.1632031520128769397
1.1632726145584175725
1.1633153970978262759
1.1633244932570607766
1.1632977238580155532
1.1632400224731844762
1.1631601017012023203
1.163073779453372536
1.1629902633279927127
1.1629253933405039323
1.1628795302050163318
1.1628578463438934421
1.1628509402751203705
1.1628528130564503851
1.1614849325990919127
1.1617640956120098839
1.1618564313223227469
1.1617156958486192231
1.1613869398578267056
1.1609709350821897367
1.1605865547552276507
1.1603241352375970319
1.1602127087932685434
1.1602151782984961859
1.1602496087195814933
1.1602314543854705953
1.1601213110685284491
1.1599376179155374
1.1597536812735764755
1.1596508654673576277
1.1596774639709370724
1.1598282876479628634
1.1600442640600336919
1.1602331197065820501
1.1603100213685557662
1.1602360900250900944
1.1600350418629730154
1.1597685515710571824
1.1595104231458157606
1.1593031810783211988
1.1591622805686052633
1.1590796697157290662
1.1590421570310296406
1.1590485537692618578
1.1591088705154344307
1.1592293826768469422
1.1628627649358911356
1.1629487168988019707
1.1630540924460692764
1.1631735311389390652
1.1632973149574450389
1.1634119374540219383
1.1635029243051815406
1.1635571227989454091
1.1635660624105468308
1.163527325575190341
1.1634458563834770839
1.1633320994288813832
1.1632039172339534439