/*--------------------------------*- C++ -*----------------------------------*\
  =========                 |
  \\      /  F ield         | OpenFOAM: The Open Source CFD Toolbox
   \\    /   O peration     | Website:  https://openfoam.org
    \\  /    A nd           | Version:  12
     \\/     M anipulation  |
\*---------------------------------------------------------------------------*/
FoamFile
{
    format      ascii;
    class       volScalarField;
    location    "0.01";
    object      rho_0;
}
// * * * * * * * * * * * * * * * * * * * * * * * * * * * * * * * * * * * * * //

dimensions      [1 -3 0 0 0 0 0];

internalField   nonuniform List<scalar> 
106891
(
1.1630465244894314658
1.1630011692769379739
1.1629519386254867364
1.1628999785164590985
1.1628541858498750994
1.1628135545786977278
1.1627886864340015727
1.1627765260352278531
1.1627857988565257763
1.1628095796381696658
1.1628445776025002623
1.1611184524928159778
1.1612116543431287852
1.1613557909530227708
1.1614542912729375335
1.1614456419257452868
1.1613295215038013097
1.1611691013175964304
1.1610588238340004974
1.1610758920006971628
1.1612399721294774935
1.1614939568650219925
1.161729177204414043
1.1618350698973853863
1.1617606746665807282
1.1615350696290127619
1.1612446347121077039
1.160978851591378147
1.160788493927188636
1.1606785498094789322
1.1606197022691095988
1.1605836245000549223
1.1605610791163250006
1.1605451739974124159
1.1605231137722433754
1.1604632061434112522
1.1603354758415329595
1.1601328223695037689
1.159886688770417118
1.1596581767244700245
1.1595145652173908246
1.1594927202897862273
1.159587646859009169
1.1597608356360564752
1.1599649098444058115
1.1601568033177569461
1.1603056355943681677
1.1603853139891107116
1.1603802506380209714
1.1626605920774915059
1.1627415165579408907
1.1628348846182865461
1.1629313849686693239
1.1630207274439006149
1.1630930269224417639
1.1631409162685730774
1.1631605318561042406
1.1631522534297100702
1.1631196520181077414
1.1630676902378913606
1.1630049965154092284
1.1629360842486462513
1.1628722814556220477
1.1628149935207974242
1.1627758377393948575
1.1627519423441805557
1.1627506831007334842
1.162765080534264861
1.1627912075030224504
1.1612782275672830501
1.161341953618771683
1.1613633238118776791
1.1613004330268117403
1.161158569950219599
1.1609958533164992378
1.1608940983929880719
1.1609191789700967767
1.1610845021474451855
1.161333216047724326
1.1615607607732532092
1.1616627286971910049
1.1615897013613216693
1.1613680410598250514
1.1610820798861964942
1.1608200648646576081
1.1606357284178396849
1.1605317009445346166
1.1604809619539693255
1.1604589589922338355
1.1604553141821836171
1.1604672026410556285
1.1604789971497060375
1.1604556958705043446
1.1603608670794480773
1.1601773519600779849
1.1599304718518039792
1.1596788410731924124
1.1594921573002974213
1.1594189348159884556
1.1594652633486879356
1.1596026747706675852
1.1597896155414719743
1.15998279712330854
1.1601474105593787556
1.1602521296542711582
1.1626601725374550167
1.1627344122330458553
1.1628288163379572051
1.1629341047019359223
1.1630387203673824281
1.1631302950017923248
1.1631975289831066878
1.1632322086259228033
1.1632312672560365385
1.1631968603279843055
1.163134852924361029
1.1630558365104044505
1.1629679846857339243
1.1628855431632378892
1.1628125550810839428
1.1627616591031904036
1.1627300189867892932
1.1627231339136245847
1.1627333958957584148
1.1627560629526125791
1.1614510935641049194
1.1614072305769942428
1.1613116473559323971
1.1611570318113924039
1.1609802247751421778
1.1608351899712554545
1.1607800141284310147
1.1608504979569143067
1.1610340329918928948
1.1612652453095877458
1.1614466586012490712
1.1614944489630580904
1.1613796309455102218
1.1611382284523887876
1.1608524944797060652
1.1606047244208188562
1.160439839946266094
1.1603561733167333525
1.1603242281019814364
1.1603171838962551554
1.1603211190515454465
1.1603336249818485548
1.1603433696634879446
1.1603269185022639931
1.160254643851885481
1.1601065349013668371
1.1598998607404875649
1.1596778745220766016
1.1594999662254041883
1.1594133229378904559
1.1594292786780946436
1.1595333794182338671
1.1596933175692167861
1.1598765743633261405
1.1600503548144882604
1.160183477303641908
1.162836833215834309
1.1629218699518049096
1.1630224360739005451
1.1631258560992296935
1.1632177820564084669
1.1632848223628147188
1.1633169509271876763
1.1633095788213436705
1.163264439435913955
1.1631883981575312781
1.163093575985716166
1.1629909697571276794
1.1628966554222810448
1.1628164304906651871
1.1627627319696800523
1.1627317665628709165
1.1627264301835560367
1.1627374944337232066
1.1627590940233107908
1.1614315489977566909
1.1612590389082744213
1.1610747929916376275
1.1609058202810453864
1.1607871929859998605
1.1607501636900958708
1.1608135325394484116
1.1609615342153423168
1.1611415378494258643
1.1612753602952858856
1.1612983410323207689
1.1611873422863847605
1.1609708684849977534
1.1607111750419087937
1.1604744736001357808
1.1602988204325483945
1.1601933847231913344
1.1601451333762053952
1.1601336621597413412
1.1601458824351573718
1.1601710265201490291
1.1601947935621701458
1.1601973991602112513
1.1601540026485688273
1.1600473236780621811
1.1598808003789393695
1.1596892479541178744
1.1595226287376727559
1.1594239666679537759
1.1594167586696897398
1.1594994697482123858
1.1596474322660976775
1.1598305460743090212
1.1600147930757811476
1.1630303549657905471
1.1630677507380955404
1.1631298235113494144
1.1632072071204135888
1.1632871735620522458
1.1633553893949812874
1.1633986011161074892
1.1634072807184130394
1.1633773378307232793
1.1633113838099142789
1.1632180550051400836
1.1631113063149549625
1.1630043947466324195
1.1629133484226839013
1.1628431223909834191
1.1628031264689271396
1.162786566039311964
1.1627925351867973713
1.1628095587084077422
1.1628307641338051504
1.1615630739568840735
1.1613315312633991638
1.1611389798790510142
1.1609879946736365586
1.1608827161932264715
1.1608250566946187732
1.1608145987721718573
1.1608449458763059337
1.160891373905532209
1.1609258227188603563
1.1609179188987481801
1.1608518863702754764
1.1607278293840928018
1.1605648265824262122
1.1603892776286159894
1.1602313628276041957
1.1601144406212984261
1.1600498724778596227
1.1600343173429987775
1.1600578675678905327
1.160100872349093315
1.1601380284472497806
1.1601513847271998081
1.160123649620247388
1.1600470983210990905
1.1599189277744501592
1.1597615827902969521
1.1596107744966384079
1.1595058788306147335
1.1594799579852326232
1.1595429691997918287
1.1596813363814495457
1.1598666442065908022
1.16342940892460045
1.1634485331308330736
1.1634781078102649499
1.1635077038917471803
1.1635253802420748581
1.1635202561012876199
1.1634854738924966799
1.1634192124795628143
1.1633264464815891159
1.1632180281604169725
1.1631088251206895823
1.1630127328752299931
1.1629436600185507622
1.1629035332801167524
1.1628959277587427312
1.1629090554572223404
1.1629367743311371797
1.1629647995622349743
1.1629857942210244381
1.1614285497005985004
1.1611740145498707921
1.1609954659628916041
1.1608876376401822128
1.1608346922494949816
1.1608117727477402781
1.1607956995505501752
1.1607686675669275367
1.1607224175611245975
1.160659870660365911
1.1605807272292330001
1.160482277062788059
1.1603646323763108228
1.1602333551531887057
1.1601111330556777013
1.160021800763351596
1.1599842969411100491
1.1600047978334637744
1.1600581237525611211
1.1601162590934361862
1.160160207292813217
1.160174313291423065
1.1601554580032480413
1.1601042087312480877
1.1600214714889678369
1.1599117577547910507
1.1597930967531964175
1.1596954257531706389
1.1596491004514299927
1.159673037926402861
1.1597699480526355575
1.1599159408197432519
1.1638839783098204883
1.1638422968545467651
1.163803305950322331
1.163760960592492788
1.1637076998366115976
1.1636373460777347244
1.16354763529620997
1.1634406009396225379
1.1633240440626013701
1.1632100448339521837
1.1631123654567532277
1.1630428916300701303
1.1630111542207952624
1.1630149328921000063
1.1630513787016896199
1.163103424323512769
1.1631593204754768767
1.1632012054903924092
1.1632215619283017283
1.1614522892182834735
1.161241601297633208
1.1610909101030157942
1.1609913966456417711
1.1609261675847579731
1.1608722237065511873
1.1608069975965562559
1.160717669460448187
1.1606007515098775151
1.1604604988662816645
1.1603087172929189563
1.1601616440548605524
1.1600350916409913893
1.1599524019841920275
1.1599304469686375629
1.1599734709659590415
1.160066199415841659
1.1601784840755289263
1.1602739142044193876
1.1603327001279371
1.160351330454175045
1.1603359078196509024
1.160294366895978424
1.1602299974287115791
1.1601353183703801975
1.160018968786179494
1.1599037578299464801
1.1598234535158806757
1.1598041085122623439
1.1598435781158034086
1.164245686806610891
1.1641299492646570712
1.1640087120952529176
1.1638818011678602193
1.1637485135394647351
1.163610677437075136
1.163473497314759797
1.1633460493181648765
1.1632396142647922765
1.1631653247183204591
1.1631317053415695106
1.1631428766831044541
1.1631926829992240702
1.1632729354503541508
1.1633622716608313929
1.1634444278847637655
1.1634983819603383903
1.1635165493120898095
1.1617555511478909747
1.1615443508491349878
1.1613386905230504986
1.1611540542444160895
1.1609996256511898594
1.1608712686810511716
1.1607475400687607969
1.1606066100657979057
1.1604373510046639417
1.1602537644536230488
1.1600734958484408832
1.1599287092099948016
1.1598450685958558992
1.1598354623710860345
1.1599053006559740808
1.1600425894219772438
1.1602206614290624387
1.1604050743230394094
1.1605624611298472892
1.1606736158283093019
1.160728454189849268
1.1607240874139141962
1.1606561264178283377
1.1605319737772952227
1.1603650559305740408
1.1601913582449954188
1.1600482141906642841
1.1599530453627275861
1.1645991884182738119
1.1644233545433624322
1.164240675365690203
1.164057997624234897
1.1638811898055470007
1.1637164517651157336
1.1635697975507290902
1.1634488776505313989
1.1633620941660975934
1.1633160876647938853
1.1633151634754612669
1.1633585948458831094
1.1634378003917555944
1.1635416276525285539
1.1636480998396185882
1.1637406056165970902
1.1637971897471004468
1.1638114005381419158
1.1620093963154136674
1.161698904195234805
1.1614073173664984928
1.1611735283051465295
1.1610124488640278795
1.1608960433837152149
1.1607818354892571744
1.1606386870291214297
1.1604634067637251693
1.1602671209524879625
1.1600787959588223508
1.1599295895904402354
1.1598600599662429733
1.1598998490836445185
1.1600504654619321343
1.1602890998047603599
1.1605759022702275551
1.1608552252813850725
1.1610752170618274803
1.1612013511511547481
1.161214252839510408
1.1611133234352781773
1.1609214092937443219
1.1606775767173251879
1.1604217089670754159
1.1601885246123622153
1.1599931266947229869
1.1646547965540812175
1.1644511500067655785
1.1642535837002443433
1.1640718242564953577
1.163913766629099511
1.1637845146465646273
1.1636883621853451043
1.1636284191969530344
1.1636059233694291404
1.1636214946189420427
1.163671432918687243
1.1637478963626011197
1.1638407041273992615
1.1639317306461176571
1.1640081318124622101
1.1640496475639314777
1.164052459140436202
1.1627328509585808103
1.162397529823771869
1.162056939968722169
1.1617667578864581124
1.1615636856863096327
1.1614400054832056952
1.1613554319414616245
1.1612540102755339877
1.1610975410638439964
1.1608664552660159508
1.1605872172333859815
1.1603069451924259425
1.160086901548436078
1.1599836499982685289
1.1600331895795270576
1.1602371996594789127
1.1605575203024185438
1.1609213850106490096
1.1612542403265477819
1.1614996161370383376
1.161619885617068082
1.16159997585558461
1.1614490218021356061
1.1611964267044263543
1.1608889816196148459
1.160574106150370266
1.1602817460624939017
1.1646753018265456614
1.1645025770985091285
1.1643492641021460088
1.164222559769823695
1.1641253441046619521
1.1640579726039441688
1.1640185799848894455
1.1640038677309758608
1.1640115442330392082
1.1640370073224763914
1.1640758681296412558
1.1641222774886232916
1.1641659188387893931
1.164200761423265007
1.1642104487885316377
1.1641947409608288666
1.1629927978133955957
1.1627341790281708889
1.1624296471332149494
1.1621281884482836944
1.1618680301580945891
1.1616663521943548787
1.1615307741087255167
1.1614443596120167523
1.161362384596206665
1.1612295894019593057
1.1610184997261228101
1.1607384569324459278
1.1604501443417498674
1.1602401114419242933
1.1601767195990044801
1.1602884075951489518
1.1605509060157699341
1.1609011327480724951
1.1612635444093168946
1.1615722176146960898
1.1617771604754907333
1.1618437276807320746
1.1617576302927712373
1.1615326714429738963
1.1612044541383645946
1.1608232076733473459
1.1604338143710697384
1.1600747283535655097
1.1647622035936286977
1.1646438644574919064
1.1645477116892899438
1.1644765825739651355
1.1644286912077941309
1.1643994806576547507
1.1643827287388488489
1.1643741052838898486
1.1643684715737818713
1.1643643868880821923
1.1643594228953177971
1.1643497696703475341
1.1643363281437240087
1.1643081857651409461
1.1642690426046702346
1.1626423056887347229
1.1624074947721561024
1.1621739708035974115
1.1619531504714706305
1.1617642275946356012
1.1616297141228715262
1.1615584659536650758
1.1615128391360474147
1.1614356167068669023
1.1612692486898845701
1.1610098958549959214
1.160716464952128657
1.1604857383561959505
1.1604007969796521493
1.1604957169316647558
1.1607400542241137487
1.1610646277851865982
1.1613936916258840171
1.1616630651265502649
1.1618308384040259007
1.1618702738967994215
1.1617678573592564728
1.1615347570524199305
1.1611989398356548087
1.1608029377576600805
1.1603950596132013295
1.1600216469838429134
1.1648768756272498415
1.1648024451965410808
1.1647479088398964286
1.164712471975751118
1.164690809783319736
1.1646746916165162666
1.1646580935490324915
1.1646347710349214122
1.1646043979915623456
1.1645665277706103158
1.1645213867703587685
1.164474282235161029
1.1644179582654794469
1.1643583364155867255
1.1623172190786938973
1.1621326982884854218
1.1619494533980694317
1.1617885051516099182
1.1616819572386740678
1.1616400416166101639
1.1616324612445614317
1.1615979341210036502
1.1614726118440465985
1.1612585139482687335
1.1610162372275969478
1.1608334350749054398
1.1607824030465643261
1.1608791793380157653
1.1610838053198631048
1.1613323923037719432
1.1615670167722387252
1.1617504650656835796
1.1618608250052033792
1.1618775945587349607
1.1617867837814395138
1.161580646673340933
1.1612699811605384781
1.1608892105704304853
1.1604895647488804311
1.1601243130511740276
1.1649894618382539146
1.164948799852423722
1.1649250369651014125
1.1649127700826724663
1.1649032087509563205
1.1648891833145844643
1.1648631171296495168
1.1648243907965765143
1.1647728833401493898
1.1647106816957271125
1.1646448526050245942
1.164570558492496799
1.1644951703160777434
1.162145538206055484
1.1619322669346796584
1.1617451239797655926
1.1616327843739757686
1.1616123045447799278
1.1616519117566519448
1.1616772320158210707
1.1616311841582742659
1.1615019131008437192
1.1613389649512251278
1.1612180546337769194
1.1611926751217060971
1.1612683368133798201
1.161410889904503918
1.1615767081571610753
1.1617337468235164888
1.1618652304806218467
1.1619572053453177674
1.161990663778547761
1.1619372120562798667
1.1617715219775532898
1.161491651489582333
1.1611248278111481191
1.1607241889817943026
1.1603500361969598664
1.1650638403819741917
1.1650547273844447105
1.1650574815673402362
1.1650629208819907046
1.1650629494592072977
1.1650488464055277493
1.1650189328052120707
1.1649720979607598448
1.1649104069734714795
1.1648409349032691207
1.164759691773491701
1.1646745521469867857
1.1618079757633930083
1.1615848123902159372
1.1614568427384517335
1.161447105266218971
1.1615213277667708613
1.1616095629403602185
1.1616508963695364454
1.1616259085520204142
1.1615628528305435019
1.1615185403234489225
1.1615332627045464875
1.1616061823992362978
1.161708968044436352
1.1618124525291311233
1.1619023955686309524
1.1619779456601462275
1.1620358039604419265
1.1620630613209306237
1.1620268171055816442
1.1618946084447014933
1.1616550252027346701
1.1613260125300521874
1.1609526825098399616
1.1605906419762372916
1.1615173980404489562
1.1613841273802545384
1.1613768634672720914
1.1614629217835985564
1.1615801935842862136
1.1616652723305316286
1.1616949651119150566
1.1616886496494418513
1.1616916729715660583
1.1617398258598596872
1.1618331334711082814
1.161945826152136485
1.1620519961280728616
1.1621400195748683437
1.1622129025733392016
1.1622712914658333005
1.1623037620650005231
1.1622801738276553607
1.1621659647237563284
1.1619458515785676678
1.1616330848189442282
1.1612679087273909406
1.1609055294372065958
1.1613232451090775843
1.1614063053124217273
1.1615526475312107912
1.1616952800155819769
1.1617945302509180561
1.1618550896102401992
1.1619105669779046242
1.1619940808483968375
1.1621105582428250536
1.1622368301299448312
1.1623452070473223596
1.1624245261767569559
1.1624821430985596837
1.162526564709531085
1.1625509815904271349
1.1625320908399325859
1.1624358642284757792
1.1622411935288068374
1.1619545038877621135
1.1616053806120407721
1.1612477656912663093
1.161808056356962382
1.1619206961650532239
1.1620234489132532651
1.1621462943162130799
1.1622989948987429987
1.1624609721316951916
1.1625981877688844612
1.1626915344264678875
1.1627470099934336112
1.1627792552110542967
1.1627899335522116075
1.162763173852919163
1.1626690204067329226
1.1624802979485602261
1.1621952165008184732
1.1618361345335614931
1.1614536000015247552
1.1622815642550166082
1.1624899773082018051
1.1626810195514751811
1.1628216933636208452
1.1629077092081598899
1.1629546589880264129
1.1629732272315425057
1.1629557503976901689
1.1628804692884595617
1.1627179169578756301
1.1624595277699569795
1.1621208094906361197
1.1617410544309247911
1.1627711433606702229
1.1630342458560098962
1.1632196674047234897
1.1633068387437035529
1.1633094493190550001
1.1632512773837502262
1.1631435545119919173
1.162980466901277099
1.1627491504935307809
1.162446471435506945
1.1620973827281202428
1.1617391640047125545
1.1667028370241716573
1.1671320057407124082
1.1676377852791539613
1.1680558705906183281
1.1682577401829414843
1.1681989864576354243
1.1679188152174546644
1.1674981701767235265
1.1669939090282746008
1.1664386848125263274
1.165859091298773631
1.1652940853884043992
1.1648012489027563809
1.1644356446089083601
1.1642352965907754037
1.1642146159846027409
1.1643550610093678088
1.164604915645337524
1.164895286000618535
1.1651670511477141279
1.1665276912283826238
1.1666241384647306756
1.1669322912023556427
1.1673709090729993409
1.1677895258667687628
1.1680504016101631581
1.1680888711578976125
1.1679263134084514331
1.167613275276763396
1.1671928493124257287
1.1666790298448048713
1.1660893129052454231
1.1654709336036874756
1.1649060288484029968
1.1644806989779110662
1.1642497097846111753
1.164220962770908363
1.1643525482822665307
1.1645717539775675142
1.1648046677947052618
1.1650079629337317666
1.1651794258138381544
1.1668874518106129301
1.1667426512351815049
1.1665968539925428704
1.1665914613947454548
1.1667938316436941015
1.1671499850182736058
1.1675177174916282485
1.1677596273381805059
1.1678088829811621441
1.1676812424192879458
1.1674314600322810431
1.167088234577831507
1.1666428652888549689
1.1660912387653563638
1.165474979707863401
1.1648882296548592752
1.1644399272420591362
1.1642011526366069507
1.1641756826684710457
1.1643031522371023456
1.1644951569624015786
1.1646774385064522228
1.1648227046728654166
1.1649461208388813827
1.165087476927624266
1.1652833301743916739
1.1664997890130657243
1.1665374150460268154
1.166469349029113145
1.1664060019386826017
1.1664653303958250063
1.1666873238519799294
1.1669946090678497974
1.1672346994140567755
1.1672759756925199515
1.1670893828354231836
1.166744867089411164
1.1663441513530845572
1.1659426215955439599
1.1655254419883704919
1.1650577665561907548
1.1645503455796910597
1.1640802022798450999
1.1637543165884118856
1.1636473464789358623
1.1637550059024053262
1.1640014603942676619
1.1642845249874906877
1.1645283477151191498
1.1647118049784301874
1.1648537001015406567
1.1649825353904910141
1.1651119101952032153
1.1652388477339465922
1.1652679900111759803
1.1655575183628501534
1.1657905226749532002
1.1659242500018658362
1.1659816260010864575
1.1660155623437713501
1.1660427075057662183
1.1660087682340023463
1.1658178273387620472
1.1654190215842474831
1.1648676978573420104
1.1643011517791037601
1.1638558916764569773
1.1635796929949959733
1.1634100163690830332
1.163243155943405327
1.1630393688265490137
1.1628520507649202642
1.1627836975162921807
1.1629093791948448278
1.163211243180344745
1.1635851802786638665
1.1639007478067944223
1.1640689593788411393
1.1640729590439011787
1.1639508750994351782
1.1637538461379466348
1.1635212474472915734
1.1632825543546494451
1.1630742179404238712
1.1637381812594844721
1.1639588406351155658
1.1641815974743976447
1.1643174608510153956
1.1643356036369816309
1.1642829220067194562
1.1642415359495537075
1.164246925324305959
1.1642455596981426957
1.1641286686878273837
1.1638226639160802467
1.1633687598432203014
1.1628973908676727422
1.1625419304875732607
1.1623409707556948689
1.1622150022685675541
1.162047813762292936
1.1617983216432297144
1.1615369699096218525
1.1613864504808757427
1.1614327888514561771
1.1616557774931441926
1.1619405990916524818
1.1621562368756805927
1.1622316389979225892
1.1621773275562159444
1.1620523299860225919
1.1619056102569089717
1.1617520515144574844
1.1615897555442409317
1.161437636064645007
1.1613470971510082563
1.1631261816100588735
1.1633757269578466342
1.1636074373056923825
1.1637254847452009887
1.163699315857884109
1.1635903140868157912
1.1635008640586996798
1.1634854284134013014
1.1634936629896175386
1.1634055428125862353
1.1631317894504229482
1.1627006689571661724
1.1622537329046596088
1.1619329380237075622
1.1617831708217418729
1.1617230749776261689
1.1616213144534852653
1.1614189487738326712
1.1611819558869445057
1.1610408524529696184
1.1610904246800288764
1.1613186827740282769
1.1616111188070712412
1.1618372302527057993
1.1619317891113398744
1.1619129497646767391
1.1618439488174547858
1.1617710723159524466
1.1616980736495741144
1.1616115872856089819
1.16152593863609499
1.1614995948122623926
1.1616001286926589398
1.1666665426638482828
1.1666511399347554434
1.1669136095523702235
1.166991218897392768
1.1666356868726222018
1.1660397033607559081
1.1643696966225993705
1.1646661208632780315
1.1649370278430113412
1.1650838763128739117
1.1650761961645987874
1.1649825757196401455
1.1649153333568356139
1.1649357212960882446
1.1649929924325401753
1.164957049533959399
1.1647299072937293829
1.1643369082805787862
1.1639207400009441429
1.1636290471369397093
1.163513342014680596
1.1634870409386499635
1.1634095996992122046
1.1632212276328288691
1.1629955640561520092
1.1628782857927977279
1.1629688003055012047
1.1632516061448905376
1.1636005424664999097
1.1638733158017855462
1.164002258868333195
1.1640098911945040427
1.1639653569761818641
1.1639185016796886885
1.163869671561695851
1.1638012152755272677
1.1637287041464572379
1.1637176460297478098
1.1638440447310678394
1.1641268511377360628
1.1700193047204805463
1.1695008980390138031
1.16953967658116742
1.1698657281799360597
1.1699660363754196268
1.1696088025826030243
1.1689943992032625353
1.168633803423988704
1.1689547007558422909
1.1692499478297699866
1.1694136988880301509
1.1694184828851352798
1.1693330039842060319
1.1692749114923361997
1.1693074430009782194
1.1693789727936041434
1.1693541150311219656
1.1691323744973993737
1.1687370345984420261
1.1683150285766770171
1.1680246076042628545
1.1679154661211406108
1.1678977385886186724
1.167825291220145667
1.1676372139884001466
1.167409225151253116
1.1672941305424173741
1.1673941069628857026
1.1676900472621873917
1.1680506977323485973
1.1683269417592716533
1.1684515015922827263
1.1684513644601759452
1.1684001625696895932
1.168350314159013692
1.1682995711825403529
1.1682255342176106616
1.1681428991164610753
1.1681223711375965379
1.1682444269103762213
1.1685274605929940606
1.1688875825322815327
1.1633662207740504968
1.1634056627293352104
1.1634292117007964951
1.1634325827078835225
1.1634193120523856901
1.1633846297900867217
1.1633389921415433488
1.1632765386981638311
1.1632102419642067481
1.1631396412969441378
1.1630647890764380659
1.1608772159396318902
1.1609128201006080339
1.1609228085891674098
1.1608864030610577256
1.1608054417859021701
1.1606933120402869175
1.1605795292151339648
1.1605100424417198468
1.1605250679013923154
1.1606423145724278356
1.1608341212303756596
1.1610313746210552122
1.1611563366568078415
1.1611620847055907912
1.1610526253051907108
1.1608748741638381663
1.1606818676864931739
1.1605002987875463472
1.1603234948395122483
1.1601296970866099567
1.1599112370523556592
1.1596937616077749311
1.159523408622384899
1.1594397454773719414
1.1594458450816433892
1.1595118674868012398
1.15958768779059751
1.159639806344898938
1.159652836804657472
1.1596356037737041156
1.1596133159338815055
1.1596158641626104213
1.1596663178909294434
1.1597699639577789821
1.1599161207127177686
1.1600748257882165237
1.162781758583518954
1.1628013822758420659
1.1628329356045448151
1.1628740184393349111
1.1629224435954694794
1.1629762580339542133
1.1630332126285816141
1.1630905831154805252
1.1631449870438625993
1.1631929249164332241
1.1632312955827690537
1.1632569779840167268
1.1632701165114245345
1.1632686896698836154
1.1632579524622010947
1.163234869865404475
1.1632094223675113476
1.1631749100920663054
1.16314037724567787
1.163101200457026918
1.1630542096483442727
1.1606309995322325879
1.1607197924843717374
1.1608364797762238396
1.1609262875160888395
1.160950963430895877
1.1608927744309354146
1.1607716424079812523
1.1606389398303580407
1.1605595722475887666
1.1605767536835900344
1.1606831057441608923
1.1608168463615369248
1.1608932473128887874
1.1608569252913363279
1.1607063085456157392
1.1604939299335308434
1.1602881069568189432
1.1601373952455849015
1.160043481824827527
1.1599744923122792262
1.1598990863037130783
1.1598074288472111082
1.1597123949096663775
1.159635662622355845
1.1595911316289910786
1.1595766304320800355
1.159575131165926587
1.1595714304845892162
1.1595531509722640795
1.1595213707413785098
1.1594905392162433433
1.1594834309568184949
1.159524347508902542
1.1596253710133161974
1.159775818665675251
1.1599444562933807212
1.1627232297155982721
1.1627555024908098336
1.1627950012979459959
1.1628401803478860543
1.162890171783516946
1.1629438994439351696
1.1629993732507677429
1.1630532102930379867
1.1631008671170157687
1.1631377046393696073
1.1631604724016495478
1.1631674857803344647
1.1631612412746130669
1.1631433541010751664
1.1631220253553025135
1.163097155959979645
1.1630793362198628138
1.1630621260611184731
1.1630510491272545437
1.1630376978061460758
1.1630162244081767575
1.160723917739023614
1.160949111907116027
1.1611540594129112769
1.1612521361840364431
1.1612059986540745893
1.1610321272231167722
1.1607959362968152117
1.1605934262045403127
1.1604961053087565759
1.1605143260751180634
1.1605928598122037254
1.1606420353734534512
1.160590768868549727
1.1604263725719090594
1.1601983847662029614
1.1599903680352388058
1.159868864599053806
1.1598505388398097082
1.1599027767838527847
1.1599692099737080042
1.1599998704687739526
1.1599678565447282264
1.1598789379440053171
1.1597572815848842254
1.1596319920818436433
1.1595256653968144533
1.15944907608533887
1.1593936433211402548
1.159351964426362569
1.1593260597489469799
1.1593281246944311391
1.1593767153627072553
1.1594857323422385065
1.1596434764203908951
1.1627269874692665041
1.1627734730213659109
1.1628265209013017856
1.1628862089733484897
1.1629516235702161975
1.1630193389525713688
1.163083629012648057
1.1631375687510565609
1.1631736165187607224
1.1631866399694039682
1.163175292489960766
1.1631438309761559236
1.1630980339181078431
1.1630503111807075634
1.1630048488779807236
1.1629742302927534858
1.1629542673198871583
1.1629487534600380094
1.1629476145156913969
1.1629441277323431247
1.1608850717856691315
1.1611949785902211385
1.1614651959464838971
1.1615848118329334948
1.1615074142956782755
1.161254877774814176
1.1609173758223503281
1.1606088308930293529
1.1604167424193705394
1.1603601168896442442
1.1603921709533522311
1.1604246896209977624
1.1603764082394398827
1.1602234977919572145
1.1600047621734392855
1.1598041152949731813
1.159700164362545971
1.1597295054527285707
1.1598672296161696149
1.1600435663036336997
1.160177642688971611
1.1602092655382090225
1.1601212860456473486
1.1599413718970310594
1.1597212863851862341
1.1595152023287000898
1.1593561201193278709
1.1592472068652699413
1.1591760642690420724
1.1591372792230991706
1.1591411596668115269
1.1592047300075714045
1.1593356700863717279
1.1595187085334996979
1.1627308460546277313
1.162785945013423472
1.1628540099433271049
1.162934464022370662
1.1630244986967905874
1.1631176643166276641
1.1632045693302792699
1.1632747314330449395
1.1633180055162535282
1.1633273159723029888
1.163300530277966649
1.1632426987353652326
1.163162637473190264
1.1630762306981332621
1.1629927070119270294
1.1629278799319791027
1.1628820493273148706
1.1628603014325822329
1.1628531234967360852
1.1628544653311005952
1.1614964335464224021
1.1617750202913423863
1.1618634416112976204
1.1617171925354254913
1.1613830674440090984
1.1609634925047898069
1.1605782022932797926
1.1603173361268215302
1.1602088253954427888
1.1602138960291885628
1.1602496205174315236
1.1602312299183581423
1.1601204010002130751
1.1599365359179196755
1.1597537539776312521
1.1596531273837460407
1.1596820682476147724
1.1598343095281249404
1.1600498871824362901
1.1602365070932501023
1.1603102617104732452
1.1602337242328595313
1.1600315636709888079
1.1597656561172462464
1.1595089032906304993
1.1593027146992695986
1.1591615625608786555
1.1590776256142449885
1.1590388910032620728
1.1590451333194373706
1.1591065591914577748
1.1592290583802347115
1.1628606049412830714
1.1629473108168064677
1.1630540356431999793
1.1631751807881738348
1.1633007049178172299
1.1634167844509284429
1.1635087030670299146
1.1635631853855907814
1.1635717507047453889
1.1635320932573818276
1.163449402026058177
1.1633344182865275052
1.1632052359412097253