/*--------------------------------*- C++ -*----------------------------------*\
  =========                 |
  \\      /  F ield         | OpenFOAM: The Open Source CFD Toolbox
   \\    /   O peration     | Website:  https://openfoam.org
    \\  /    A nd           | Version:  12
     \\/     M anipulation  |
\*---------------------------------------------------------------------------*/
FoamFile
{
    format      ascii;
    class       volScalarField;
    location    "0.01";
    object      T;
}
// * * * * * * * * * * * * * * * * * * * * * * * * * * * * * * * * * * * * * //

dimensions      [0 0 0 1 0 0 0];

internalField   nonuniform List<scalar> 
106891
(
300.46266454998999507
300.45793467936175603
300.45237881684801096
300.44729965983896136
300.44197126627420857
300.43825648816874718
300.43499710811391878
300.43424732974693825
300.43455155014953561
300.43699532490956017
300.44085727029244026
302.62382524058557465
302.6318842246529357
302.63447112468105615
302.64327568921692091
302.66465435374522031
302.69734104564480504
302.73359523005683513
302.76208572547227504
302.7720467708465435
302.75731126879162503
302.71803871024297905
302.66108098463490705
302.59844077995421685
302.54535465794526772
302.51594265336058243
302.51801900983889482
302.54899537268414633
302.59645561282519566
302.64392483513222487
302.67765136326892161
302.69303160612446391
302.69552846388972966
302.69524329235446203
302.70112692818514688
302.7155176870621176
302.73429032642849279
302.74958047635561798
302.75413027054736403
302.74402470228909579
302.71962865967992684
302.68379138856710142
302.64054113149336445
302.59423906289993056
302.54975408835514372
302.51153922616731506
302.48314035443871717
302.46596580135792465
302.45992327253816256
300.42268990190393652
300.43125972218047082
300.44112159660812722
300.4513072073116291
300.46070064988174408
300.4682667951352073
300.47319596242380157
300.47514146890637221
300.47411878452646761
300.47048489603321286
300.46502779844047382
300.45806229093517459
300.45112062017233256
300.44385353058180499
300.43830776721551956
300.43350378501617115
300.43144506962556761
300.43070762235970506
300.43218183693471701
300.43500619959269216
302.63375541380509048
302.62335819257140201
302.61875049986878139
302.63160163587548368
302.66361592918269707
302.70722421218306408
302.74854145654836657
302.7727872543025569
302.76948239978554511
302.73559295339322261
302.67703375959575851
302.60762272212866719
302.54603462128176261
302.50980733490763441
302.50898766560862896
302.54101824795338871
302.59183151247304977
302.64164965556221887
302.67417516062783989
302.68386996601577721
302.67680265643662096
302.6659057175394878
302.66308215457655706
302.67335449700169647
302.69375001739467734
302.71544800623746596
302.72904317151437681
302.72800582587302642
302.71063920646940915
302.6792800525607845
302.63830615313281669
302.59338368405389019
302.55094185016884012
302.51658344599326256
302.49418036846014957
302.48446028932420404
300.42256830181707983
300.43049831199505206
300.44052473022236427
300.4516817310519059
300.46272142475828559
300.47234233532896042
300.4793331589539207
300.48285668028381679
300.48257951806112942
300.4787130429986064
300.47207807199509944
300.46331552677173704
300.45421051163236825
300.44487233543247839
300.43755026045255363
300.43145762603654703
300.42852406458240466
300.42729782161757157
300.42842773949729462
300.43082516442592578
302.62199755795597866
302.59234565626763924
302.57765355505887328
302.58955383738197042
302.62829786603049342
302.68172867777616375
302.73129853379646192
302.759476435176623
302.75570385177138633
302.71952520522501118
302.66012425620584736
302.59378587109512182
302.53938803958976678
302.51227842527111989
302.51914497612648347
302.55486227582787251
302.60419116672801465
302.64823408290783391
302.67267015204544123
302.67398329113933642
302.6594850359482507
302.64274800362932183
302.63582841672439372
302.64415715591485423
302.66471003679521345
302.68819643095662286
302.70489723660091386
302.70752927465906623
302.69406486234288423
302.66697971259247879
302.63096629335609578
302.59232457059403032
302.55715802921741897
302.53074599914151577
302.51592448305541438
302.51264091717564497
300.44153467914969724
300.45060600446095123
300.46127658325025322
300.4721777619962495
300.48179552720876018
300.48871158216485355
300.49186633199605012
300.49078913139567248
300.48565166543738769
300.47732831478822391
300.46675665522514009
300.45587589243564253
300.44517473092730597
300.43699023369441647
300.43061799621750652
300.42779127663612826
300.42693331874875184
300.42836582404117962
300.43066303761855806
302.57449622043901627
302.53708536003085783
302.53643814438191839
302.57581473048344378
302.64138109054232473
302.70804654351485397
302.7503976967801691
302.75211523427896054
302.71204597408910786
302.64344542729372733
302.56915127071499683
302.51296203242469574
302.49145615442103008
302.50843213683987187
302.55443720071019698
302.61053597164777784
302.65670469400220099
302.679212973356357
302.6750199396658445
302.65194347796767715
302.62376350404809955
302.60416954350853302
302.60160479855011317
302.61644294832376545
302.6418528777511483
302.66722544306503551
302.68307111795240871
302.68372960436136054
302.6684108211130706
302.64113515206128113
302.60902575665869563
302.57953832807976369
302.55900606758467575
302.55040027011432358
300.46181450489513054
300.46590035434695665
300.47250953780593363
300.48066375721441545
300.48898545167020302
300.49596188705965005
300.50021348260850118
300.50071323552430158
300.49708250692856382
300.4895930484039468
300.47926010223170579
300.46735353202558372
300.45589127661258999
300.44556156153566917
300.43846558118070789
300.43370863928709014
300.43257063670461093
300.43320800173870566
300.43558706007962655
300.43790144714455437
302.5415740565225633
302.4859063834443873
302.47413196165655336
302.51379544343768657
302.59204563317905468
302.68068202125641619
302.74763780192790819
302.76955504288605425
302.73954688761085663
302.67019027830559708
302.58714040298667669
302.51940725553288303
302.48804182128344564
302.49946247539548949
302.54403795642951991
302.60158896225732406
302.64974239382564747
302.6722452543486952
302.66392577502733729
302.63191507231243804
302.59107185732705148
302.55786651966565159
302.54505443349893312
302.55657840855963059
302.58737699491103967
302.6252034665122892
302.65738037222126877
302.67459932949594759
302.67356371269846704
302.6574283073819629
302.63304214050356222
302.60836256328633453
302.59028240639167961
300.50365183544397496
300.50564695263926751
300.50865407866365331
300.5115428606886212
300.5130610482573843
300.51210375061282321
300.50790572084173391
300.50036578985333335
300.49000777388403094
300.47803921693832763
300.46595314750339867
300.45565209749605629
300.44781644462904069
300.44401777889589766
300.44291551256185357
300.44507506868700375
300.44824584249693089
300.45201864939963343
300.45427795449865016
302.47373901278297126
302.47281340632025604
302.5239816241854669
302.61012551013959637
302.70144678586063947
302.76642807069032415
302.78369652935163003
302.74896292482202398
302.67615658638845844
302.59185596748841363
302.52441312124977912
302.49386735817051886
302.50558617956153284
302.54917009567992636
302.60440713256656409
302.6486398103263582
302.66567207028208486
302.65128122622428464
302.6119835701623515
302.56357863377650119
302.52475952320077113
302.50913445007597602
302.52142995779979628
302.55624235325927884
302.60086232382997196
302.64095466997389394
302.6665159698586649
302.67465765992864135
302.66871890042136783
302.65539087536200213
302.64181592242584884
302.63223689600818034
300.55055695959094919
300.54609648597670457
300.54184691466394952
300.53714695963043368
300.53120524643907174
300.52342432790163684
300.51349802443621684
300.50175728637782413
300.48901033962874862
300.47654974826281205
300.46586034897956097
300.45843567625303194
300.45471597263480135
300.45557725463442011
300.4592234772172219
300.46546906048871506
300.47160571682468344
300.47687409944518322
300.47887417897317164
302.48011505726714176
302.54107487670648879
302.63295502175532192
302.72363823979418385
302.7819593978134094
302.78925844165689796
302.74568364080107585
302.66928648053345796
302.58798312089874116
302.52859332849601515
302.50745553845212044
302.5255678770700456
302.56930228299387409
302.61786746250641045
302.65087776544629605
302.6559143055073946
302.63188394796043212
302.58822768144227666
302.54038291331181654
302.50502239138165805
302.49396764553540606
302.51050130945031924
302.54905168906310564
302.59784470274735213
302.64281487951262761
302.67438842182923509
302.68960923680862152
302.6919466299162309
302.68780907903379784
302.68208689311404669
300.58754227760715594
300.57535682552406797
300.56253222785318258
300.54903582771413539
300.53484992098049133
300.52006871828547219
300.50536603722667905
300.4916667884282333
300.48013720577199592
300.47206210178904939
300.46839852186667486
300.46925810057354056
300.47481291264358561
300.48298189581316819
300.49294466303405216
300.50160794579721824
300.50804368267682776
300.50953050167413494
302.55307893773414207
302.64448997125867891
302.73640007821126119
302.79882872237953961
302.8131225034221643
302.77825696386634036
302.70945280527217847
302.63195861954102384
302.57114335935204963
302.54441694464503598
302.55421864068506466
302.59027279241860242
302.6336639739577663
302.66454080581911512
302.67022981082214983
302.64831786963912919
302.60636553363468693
302.55833474505169534
302.51944658185277603
302.50183069050871154
302.51040847614802942
302.54197983049931509
302.58641711050142931
302.63189223492196334
302.66834482088557934
302.6920419402217135
302.70429451643053653
302.70821588420807302
300.62357882932099074
300.60538022152462645
300.58642755600095597
300.56739415928859671
300.54893845267952202
300.53159668959182227
300.51613320092394588
300.5033025667744937
300.4939500120943876
300.4889515660487973
300.48866411448506142
300.49293036760587938
300.50136544410895567
300.51188211450869403
300.52342292844321037
300.53287141208232924
300.53949533318041176
300.54030058529383496
302.6751386719975585
302.76675923242328281
302.83472150470026918
302.86070981928878609
302.84037137089035241
302.78249181630212661
302.70674939086296718
302.63695259670924997
302.59310335822374327
302.58321402094662744
302.60237114360910482
302.63511758496554194
302.66376195326387233
302.67450805248887491
302.66130274118444277
302.62783466836896196
302.58556191098585941
302.5481000461450094
302.52696653277286032
302.52826024390003568
302.55053306299998894
302.58647052891069507
302.62682249736235462
302.6638800853935436
302.69315190139235483
302.71393295202102536
302.72715333238477342
300.62953717194454839
300.60865003173648802
300.58829724001373052
300.56953270460536487
300.55306455133222698
300.5395653707291217
300.5294316787886828
300.52295681802581839
300.52049089020653128
300.52187717523577248
300.52687569912075105
300.53486594388959929
300.54419849865439573
300.55402108613799328
300.56156852574042659
300.56663104206307935
300.56613093260688174
302.61183019162439223
302.70134633630300414
302.79255491136672163
302.86100062137217037
302.89040933831500979
302.87683504597941919
302.82970648528163338
302.76717915737083331
302.70984600101769502
302.67174795299433754
302.65806373047377065
302.66283628744389489
302.67354783123334983
302.67706388009185048
302.66528772031216477
302.63774610598801473
302.60068468366523575
302.56329881802389536
302.5354676543014989
302.52470966066221081
302.53321014036720271
302.55770824607628811
302.59159083003657997
302.62763812645107464
302.6609097773097119
302.68906902812153703
302.71121924374159562
300.63197131970525788
300.61425934202992494
300.59849879109503945
300.58533385024759355
300.5751966570002196
300.56807476029644022
300.56375635880846175
300.56212213361214936
300.56263842187240698
300.56517113711566935
300.56914731199594826
300.57371011060894261
300.57861348010948177
300.5817581935053795
300.58363489731931395
300.58133339922466121
302.57571140803355547
302.65750776506513375
302.75718960144178027
302.85064462159078857
302.91461608003589845
302.93527896186026283
302.91441161190590492
302.86608342394993088
302.80919450871869003
302.75975912552871705
302.72704156444956425
302.7111980842793173
302.70666194634571866
302.70540794980627197
302.69917943390214532
302.68262489272188986
302.6543238917146823
302.61748790518538499
302.57939055982024001
302.54913237293754946
302.53389551518506551
302.5361135426331316
302.55351743216414206
302.58146732032213322
302.61505312335992812
302.65082549933850942
302.6861029627226003
302.71895795758456416
300.64108903578681975
300.62897927131513143
300.61900404986397461
300.61157110292805328
300.60644320530110463
300.60313752302243984
300.60123194151316284
300.59994247189143834
300.59921255384631422
300.5985661352549414
300.59777991371697681
300.59710139113974492
300.59514365575938655
300.59314718274259803
300.58859455914461023
302.67626247498566272
302.78016935701771217
302.87540486539813855
302.9411388300157455
302.96666663351214765
302.9547048280272179
302.91858788095913724
302.87383361252250324
302.83359750367509378
302.80366491424268816
302.78424209317518034
302.7712353460329382
302.75833417063660136
302.73856773651044705
302.70718369648943735
302.66353552261722371
302.6131314255566167
302.56641233886699638
302.53445843635705614
302.52471733030887435
302.53774823422099871
302.56771342995278928
302.60668856010784111
302.64756463434139278
302.68653633575837603
302.72302923875361103
302.75813510402133488
300.65290042834988071
300.64530703212278695
300.63969385350247876
300.63592714512247994
300.63345186005705045
300.63161595056084252
300.62945086552281282
300.62686235478798835
300.62334532801781961
300.61907498457878773
300.6145923728080902
300.60898921224975311
300.60398863992173801
300.59735755640457455
302.79375848483209666
302.88805284000284246
302.947426966354044
302.96721861912595841
302.95584397697183476
302.92858963993899124
302.89990011083563104
302.87769011702675925
302.86143258769669728
302.84725677927400511
302.82937796188247148
302.80211807824139214
302.76217312529530545
302.70937007337352043
302.64785014218659853
302.58659755920990619
302.53713307432803958
302.50960460626077975
302.50884501402742899
302.53232736348581966
302.57247456259449336
302.61965669179403449
302.66624775732060471
302.70891459489058661
302.74816077011496418
302.7859024320096637
300.66437213367584036
300.66034959667325666
300.65793790175217737
300.65657423261768599
300.65552357202284384
300.65370167521120948
300.65090814592582547
300.6465122294973753
300.64085684611040961
300.63456095290797521
300.62694199170340426
300.62000000421505774
300.61176094293546157
302.85846390892686486
302.92094558203103816
302.94625415577576177
302.94372176584323597
302.92832692505146497
302.9128956528251706
302.90230914108934712
302.89508178436727803
302.88512626846556941
302.86630923513956759
302.83418390515578267
302.78662453865877069
302.72468858823555138
302.65365251683078895
302.58324843533347348
302.52545150158545084
302.49078685546862744
302.48452809501571892
302.50536985809003454
302.54624484977938437
302.59773839357416136
302.65216977583912694
302.70546504063514703
302.75699399502337883
302.80709591209006248
300.67171342469208639
300.67089816356315168
300.67118096792967208
300.67176452175863233
300.67148520377298837
300.6700295441115145
300.66660466035676791
300.66153742853583708
300.65533678005590446
300.64740611411383497
300.6397472275544942
300.63061389242960786
302.90451007158020502
302.93800526409398799
302.94734613951840174
302.94525832913188879
302.94122250857395784
302.93864427170387899
302.93545456674945626
302.92655372169099337
302.90644448529707233
302.87169108392248518
302.82094839985376211
302.7553281585776972
302.68000437808962033
302.60461066025413857
302.541188916441115
302.50056901073526205
302.4886623412654103
302.50532933704283778
302.54425547920317285
302.5968019099342996
302.65564035696627343
302.7164347191863385
302.77758083783345455
302.83791772370898343
302.91144047517883564
302.92956040824623187
302.93768103225499999
302.94394745270307112
302.95151795057779509
302.95775269491770132
302.95745440090598777
302.9449193281362227
302.91606075779196772
302.8689964923070761
302.80411379478391609
302.72557886590220733
302.64224174849579185
302.56609580113109814
302.50932005314552953
302.48039829022644653
302.48223617831973797
302.51162659639038566
302.56166873377355842
302.6253001212721756
302.69687039111187232
302.77228003194687744
302.84768377133656259
302.93814854090885547
302.9517932355243488
302.96146481072565848
302.96662527697606038
302.96412474982031426
302.95050218989115365
302.92310687028793836
302.88069771770483385
302.82324435102077587
302.75273453450091665
302.6745989626963933
302.59802781021471674
302.53418693792576732
302.49276220503850254
302.47925459873789578
302.49427685752579009
302.53413895525852695
302.5935642074638281
302.66739585484594954
302.75026065083272897
302.83689873608506105
302.98404808899857699
302.96660626300598551
302.93731783045762995
302.89693519348503514
302.8458721906088158
302.7843350238361495
302.7141081831088627
302.64081722987680223
302.57378162677144928
302.52308116165022511
302.49627224666801339
302.49710286880821286
302.52534893142956207
302.57828086526967581
302.6524917439706428
302.74297804305496129
302.84337356467210611
302.90468672994182953
302.85021893813336646
302.78533348346684306
302.71317106029908928
302.64145427932800203
302.58027095727811684
302.53837818106188706
302.52119241491169532
302.53087051317618261
302.56672513643053435
302.62753532220091301
302.71092445655159509
302.81252485151122755
302.83018118151761655
302.76546763628090275
302.69870865824645989
302.63637933697526705
302.5869740999626174
302.55778693460433715
302.55264244715982613
302.57181499895563093
302.61324898161052488
302.67430339538901762
302.75314635786071449
302.84659878764250607
301.6674508058094375
301.58854406763759926
301.48223037365715982
301.3649530773063816
301.25969494705026364
301.19138857564888667
301.17892089564281832
301.22741879283051958
301.32373510740063693
301.44351891084625095
301.56175022683299858
301.66123476484580124
301.73597368607426006
301.78799138187474682
301.82285358419204613
301.84583172650604865
301.858666368360673
301.85828363486513126
301.83838623231366682
301.79296665381804132
301.70323470674316013
301.68971546127306738
301.63675017337186546
301.54594559795089026
301.42732975037489496
301.30185680475790377
301.19834348318232742
301.14498975660336555
301.15624286289892098
301.22725068349177491
301.33619712567337956
301.4558404303121506
301.56477275251410219
301.65337162830263651
301.72192669482097926
301.77506719533687374
301.81690237737916505
301.84761595393354128
301.86325675952474512
301.85787890797143973
301.82699102340751551
301.76965002272913807
301.61139375263161355
301.66123858515067013
301.6946741154714573
301.70021046785950602
301.66974433801408395
301.59922446888293734
301.49265936413507916
301.36729213344710843
301.25177337496438668
301.17716479705904931
301.16418722621295956
301.21327766281899585
301.30575785028480595
301.41526327656146123
301.52004610719194488
301.60992761794244643
301.68503148521017465
301.74956009458412609
301.80589757264817763
301.8516840257811964
301.88104849276248842
301.88768150680840563
301.86821665491282829
301.8226895587355898
301.75433200844207704
301.66880487238910291
301.67496867477393607
301.71732964143660638
301.74557804190192201
301.75167553438586765
301.73440487243487951
301.69548138460186237
301.63688044598205806
301.56286557968985562
301.48432812158239358
301.4203968323074605
301.391822190973528
301.41076447986051789
301.47321783043560117
301.56031059313079368
301.6487707959847171
301.72263475510595754
301.778459051043626
301.82207717742909381
301.86080632848046434
301.89639586077151989
301.92385173268189646
301.93508629997739945
301.92420294012970317
301.89093414349463274
301.83983010540845271
301.77796574776891703
301.71315897127948347
301.65405638012236977
301.91160994061584688
301.9303683429380385
301.92489728596279974
301.89925138019719952
301.86884988677132924
301.85235945566654436
301.86062544154941634
301.89055839574001538
301.92827885852079817
301.96024521843469302
301.98267420989219545
302.00147117988984746
302.024834044551028
302.05408952232289721
302.0807086724785222
302.09261703654021858
302.08497729415614685
302.06343097240892348
302.03993341789515625
302.02533127396287682
302.02279523308015996
302.02821856035029668
302.03557844222660833
302.04248050206268772
302.05165602401729075
302.0678609069636309
302.09318547560417301
302.12544100723238216
302.16039028005718592
302.19581222469389559
302.20522849879824889
302.25594312347527648
302.29695439066432527
302.31909208119719779
302.3216854979962136
302.31469158260301811
302.31286111983882847
302.3250142660293136
302.34754300464999233
302.36728356209772528
302.37212104696766346
302.36167219552544339
302.34686676108526626
302.34159483307809069
302.35154385031916036
302.3695807435717029
302.38270139004146131
302.38379948729749458
302.37722216195732017
302.37460316599361931
302.38669157985953007
302.4155617649909118
302.45387192247278563
302.49102529441552178
302.52012071693218331
302.54066491683857976
302.55655317560689355
302.57131907011296335
302.58607626927789624
302.60081637360616469
302.61735182640808262
302.63995428541210231
302.36322231790546766
302.41088451936377623
302.45413274469206044
302.48322530369296146
302.4957816755317026
302.49933307555039619
302.50587877575281937
302.52223333037937891
302.54359955868017096
302.5568555401522417
302.55119330746492778
302.5276588797603381
302.49958486472110053
302.48127644142533654
302.47773581459296111
302.48126823163886456
302.47902159861388327
302.46561071170475543
302.448731661939064
302.44289976648627771
302.45870879687311117
302.49511136608816742
302.5395588412021084
302.57711100262093851
302.59945713557766567
302.60740463644333431
302.60730777113690237
302.60459612371471394
302.60069817238553469
302.59521243033833571
302.59027388850938678
302.59218952053743124
302.6078579749228652
301.40814815462420029
301.4245624294117647
301.46894625667090395
301.49311664996156424
301.47132902361022389
301.42383248011543628
302.03912711751354436
302.07829559797659158
302.11466587712118326
302.13775534178677162
302.14399290388274721
302.14026356569837617
302.13838615100445395
302.1451631837994114
302.15569927534755834
302.15641115428667263
302.13663916043327617
302.09845284436499924
302.05657057687523093
302.02674826864881652
302.01501125185171759
302.01286357317565034
302.00558968421313466
301.98648506468788355
301.96282069976740559
301.94986000734627396
301.95837425952316835
301.98711946841626741
302.02296631066678856
302.05064592975782034
302.06262240285775533
302.06105452574854553
302.05336002139353013
302.04513980124448835
302.03670090091759448
302.02615014605737542
302.01488406240781615
302.00955363180230506
302.01817627175705638
302.0430077316636357
300.71103645064954435
300.66438639638352015
300.67569030006933417
300.71851367122076226
300.73955245968733152
300.71311510414381019
300.658627228167461
300.93649094529178001
300.97130343467665625
301.00386995887748753
301.02292564606170799
301.02517405299619213
301.01739021767900795
301.01185145327428927
301.01555211276320279
301.02359940061614907
301.02199333512044177
300.99986064108026085
300.95903722938402325
300.91452510092415196
300.88311913954697729
300.87055740206415066
300.86787560939325203
300.85970170304858584
300.83919236974708156
300.81383588540268192
300.79968129019374601
300.80785514455197927
300.83687533873251141
300.87331201979111484
300.90137940670592798
300.91362337689508877
300.91253103967505922
300.90573168999401332
300.89886828875984293
300.89189305737443192
300.88242356672378719
300.87179489511976271
300.86722016864177931
300.87725227563061026
300.90422218781748143
300.93981432657255937
300.49660903046077465
300.50072170637093905
300.50278322363925554
300.50329568042252504
300.50123571497209696
300.49821420910365077
300.49250661502986759
300.48678151387395019
300.47938321812569029
300.47164557594214784
300.46487128683151013
302.59353501467137448
302.57872341518310577
302.5652251283435703
302.57006279878964961
302.59914701458774289
302.64417090014524092
302.68742552638445886
302.71083377029219719
302.70347012691155442
302.66620322405452725
302.60970982516761296
302.54955201269461895
302.50134443941664131
302.47684976659303402
302.48132173815253054
302.51221315173251014
302.5591876633876609
302.60683322780602111
302.64016750185476212
302.65065537901278958
302.63990820206782928
302.61924677780081083
302.60410737377071655
302.60678800896386065
302.63033325308106214
302.66818529339263932
302.70694567266349395
302.73318592202048194
302.7369675126882953
302.71492120306118068
302.67046689385637137
302.61209853918535373
302.55064286623240832
302.49622354247640033
302.45666217228989581
302.43576393255960966
300.43465706104353785
300.43666028301117876
300.44002715121877145
300.4444753034531459
300.44977361378380465
300.45565975774712797
300.46187405273377635
300.46806538870998793
300.47385472049842292
300.47886965795225933
300.48269287886688517
300.48525141285080053
300.48612927791776883
300.48598577268575127
300.48407276066308214
300.48209696510480171
300.47846540838605733
300.47552710336105974
300.47147426478233001
300.46720824357799984
300.46313126938122195
302.56163147469243313
302.54129236191255359
302.53090059300637904
302.54585127384029875
302.58855609895670113
302.64649627454917891
302.69874453958510685
302.72520663926479756
302.71549538305077931
302.67240121849840762
302.60930622756308139
302.5438970567696515
302.49233875813581562
302.46607911747105391
302.4692527855482922
302.49856333096181515
302.54361098953182818
302.59014144766661047
302.62400424308140146
302.63666424930471521
302.62915186989027916
302.61121586565900543
302.5964604116329042
302.59606867953448273
302.61400169909836677
302.64556668209922918
302.67953053835566379
302.7034112346059942
302.70728094332201863
302.68737042003488114
302.64674555624242203
302.59370236650897823
302.53911971892239308
302.49299677106137096
302.46179312620108703
302.44769752668310048
300.42815364583657356
300.43157303418809079
300.43586016611385503
300.44081458202481372
300.44633846732074289
300.4522574066619427
300.45833143472913207
300.46415941657534177
300.46922337957948912
300.47304647817048817
300.47521208833984474
300.47573993511844037
300.47455072399361597
300.4725824291324443
300.46950321597233824
300.46720245033748142
300.46437208441113853
300.46309470682973597
300.46150888489995623
300.4601039479452993
300.45838045585298914
302.49852658294787489
302.49216873201993394
302.51733655785017163
302.57309713093661685
302.6443632538437214
302.70720122770620719
302.73920864458716551
302.72980910590359827
302.68272371755352879
302.61306294511439319
302.54074419564977916
302.48363715692693177
302.45340118064660828
302.45370975324186702
302.48043992510639555
302.52352116093101131
302.56937140554362031
302.60479423851842284
302.62144766542820662
302.61887015289505598
302.60421272380182245
302.58858634569685364
302.58279929756827187
302.59245424088754817
302.61592866690989467
302.6452634361020273
302.66939823992402125
302.67745882820486258
302.66386221043057958
302.6301737920166488
302.58420352766086125
302.53710957620364752
302.49957763740542305
302.47743573156765251
300.42883007844403664
300.43382003741658082
300.43954449188169065
300.44601269254150111
300.45307530446871169
300.4603454180363542
300.46719808465007873
300.47285559009566214
300.47656276437811584
300.47771954646344739
300.47631670180436458
300.47254014454927074
300.46763530981445456
300.46182827232559021
300.4572908758056542
300.45317982600340656
300.45146937104112794
300.45045892894700046
300.45045342514470121
300.45018128717828176
302.47674257806158948
302.47600793209392123
302.50895675715850075
302.57237036266946006
302.6495871463620233
302.71573502057140104
302.749105781405774
302.7392875458438084
302.6905374585401205
302.61837783008030556
302.54369339437272401
302.48484572846916763
302.45292275676672489
302.4511478366036954
302.4750758145561349
302.51527441845121302
302.55925576477994809
302.59506331979957849
302.61407229569755373
302.61376796550609924
302.59855621962230998
302.57778589507796596
302.56224973329034356
302.56027314526033933
302.57420012584663027
302.59976050842061568
302.62738896076251649
302.64558598976071835
302.64582607875121312
302.6264113079093363
302.59286877679710415
302.5550772910669366
302.52295754274922501
302.50272926225295578
300.42948469348772278
300.43526024161462828
300.44240843986870004
300.45088055818047224
300.4603484129552271
300.47012051193382831
300.4792214512487476
300.48649312769856579
300.49093122458634753
300.49175173687871165
300.48879864507983939
300.48241641586639616
300.47402659943242043
300.46434016759474162
300.45583992190717026
300.4483076597289255
300.44380897181815726
300.44111160245012115
300.44060956263729167
300.44037601702132179
302.49413266992598892
302.52404083595200746
302.58201095381650703
302.65339426790825428
302.71722346234207635
302.7529747636731372
302.74907672268284387
302.70697967576620613
302.6397628591261082
302.56671098344446591
302.50629452669431885
302.47088760810805752
302.4650319501905642
302.48503286048531891
302.52192143558607995
302.5634548159790711
302.59754515778917039
302.61595900209277943
302.61620765961123425
302.60135772809735499
302.57888515557453957
302.55851289084364453
302.54931561551785535
302.55549613641568385
302.57532045454598801
302.60036964033889717
302.62039770400326688
302.62715610723608961
302.61781500963013514
302.59612970402571364
302.57020232047614172
302.54835113875674324
300.44315815365126809
300.4521059309103066
300.46313983137576997
300.47565632136257818
300.48861014392446123
300.50060783300813227
300.51005569541575824
300.51564746772476155
300.51646892221117469
300.51229532239267428
300.50356121357401662
300.49172866225478629
300.47788859314852061
300.46469958259365285