/*--------------------------------*- C++ -*----------------------------------*\
  =========                 |
  \\      /  F ield         | OpenFOAM: The Open Source CFD Toolbox
   \\    /   O peration     | Website:  https://openfoam.org
    \\  /    A nd           | Version:  12
     \\/     M anipulation  |
\*---------------------------------------------------------------------------*/
FoamFile
{
    format      ascii;
    class       volScalarField;
    location    "0.007";
    object      k;
}
// * * * * * * * * * * * * * * * * * * * * * * * * * * * * * * * * * * * * * //

dimensions      [0 2 -2 0 0 0 0];

internalField   nonuniform List<scalar> 
75962
(
3.2408826789828134923e-05
5.0998648445445215972e-05
7.1203007503805251116e-05
8.2695419067440830742e-05
9.3707989225232492594e-05
0.00011865339164344005393
0.00016798071745431926286
0.00020322567715836320273
0.00021818568743019281942
0.00023224090042339950958
0.00026813610188627115755
0.00031751608724361044846
0.00035010919096488721898
0.00037865581426709487125
0.00041584738846752665161
0.00045854456650350536697
0.00050061196417612423021
0.00054428138179572250772
0.00059490723458194044899
0.00065461122750830303373
0.00072258280652741303969
0.00079246743005927848622
0.00085133335979307978546
0.00088878887570903344732
0.00090890246283735118792
0.00092964897603692027254
0.00097299056344003526271
0.0010769458867810402514
0.0012050413500115210799
0.0013145822472685555777
0.0013903514722211555814
0.0014311496777411661895
0.0014505007989804340803
0.0014737490822787503286
0.0015309472465727062135
0.0016908262734649441399
0.0018803722610472018133
0.0020236384899809827832
0.0021259643475125089389
0.0022101120029576325904
0.0022950578774599446341
0.0023815558900924858714
0.0024562562596310319289
0.0025111579985501197333
0.0025521394458338474143
0.0025902769189079903611
0.0026303126644018396361
0.0026683501837620844307
0.0026993261387133144283
0.0027221516689271826536
0.0027439417914624907729
0.0027818177799471283801
0.0028672376675897980232
0.0030872010230035351955
0.003395998639855175253
0.0036834929502668309516
0.0038943624961212969932
0.0040095842813524015108
0.0040539818375493934591
0.004070168030104980017
0.0040914830283470546637
0.0041348183443956762137
0.0042060472938106165455
0.0043062350385917914919
0.0044302760540354205882
0.0045638932272182228256
0.0046854083292185736906
0.0047740853878639900182
0.0048227515515868735196
0.0048497003156434889681
0.0048893859055760980487
0.0049883261705667269331
0.0052800594415998896095
0.0056617115520044992288
0.0059528885834152934359
0.0061312674355963291128
0.0062158701994449571532
0.0062454707368654353503
0.0062539751773172764723
0.006262042068009903914
0.0062797377487091091131
0.006326489077161282816
0.0064645853696988922824
0.0067199949247963271584
0.0069778842078078127942
0.0071992947964530764129
0.0073500020537449629182
0.0074190230736052948865
0.0074319736848160585993
0.0074324055052668565671
0.0074508442263640783931
0.0075745159812568088609
0.0079533266240757825166
0.0082923733417241476951
0.0084961457854471709311
0.0086104635446807645249
0.0086807994089100996848
0.0087350155731431827072
0.0087804385382851766334
0.0088185312064740471738
0.0088649441476484677066
0.0089553423679002274599
0.0091857322159525113536
0.009582706432894879528
0.0099416994667157528726
0.010176519284101336396
0.010268969252226025843
0.010279103115192993537
0.010272666003371894519
0.010281029161874207303
0.010373076443757421605
0.010753477600933057656
0.011308754252597056841
0.011746309668877170582
0.012074835051608379805
0.012300506301594110042
0.012431204964017929238
0.012485133404490235398
0.012496994229193088971
0.012503438551788117333
0.012528584331074468783
0.012644478017575670747
0.012898250622414612898
0.013058982795997976095
0.013115349069956141678
0.013119087588774164602
0.013087210686644090707
0.012941082184672695124
0.012765014496685704593
0.012677192208641061347
0.012658591316469538363
0.01268343194736749717
0.012860650891159005477
0.013500432638215714362
0.014207812029422145494
0.01461981517356283726
0.014812072791810087027
0.014955120496487240775
0.015238707452458914726
0.015813882009964422976
0.016505011683964183888
0.01714251391712899239
0.017587783878370146645
0.01779714682654913796
0.017833594784817760615
0.017790162516758255967
0.017549239690526644009
0.017301036296399695258
0.017247882475585299411
0.017304620412997007844
0.017688348924889615854
0.018662574621654173801
0.019333854168884251346
0.019624632695663737914
0.019691896756310646455
0.019691252644305913544
0.019682678075442050503
0.01968708688570011342
0.019690625815940315108
0.019671961804743426372
0.019552174445313708073
0.01910134415217835599
0.018568521334850891097
0.01826655023183718432
0.018150822519536209676
0.018136984600519483191
0.018159830850631154125
0.018278265105440196642
0.018456435920170901482
0.018567366558695390377
0.018625478418437181605
0.018647781768866937557
0.018651100529625451452
0.018647418254961523054
0.018626563301643243864
0.018549792134289522921
0.018398765571932838847
0.018270217599822294319
0.018175212013968277541
0.018113641073810405474
0.018080657906682482544
0.018069514909777300432
0.018068674676622990122
0.01807486547237302163
0.018106239033084697843
0.01822186899400627183
0.018437397514473721771
0.018623476716585356944
0.021977301931878665681
0.022029741611145545882
0.022088882416713463003
0.022157071246917483393
0.022234125916108109927
0.022316985840833004906
0.022402104849191709079
0.022485899378753709116
0.022563511097082915996
0.022632882368933768952
0.022693969209176087509
0.022746589782239413219
0.022793561032905352431
0.022837890946422946536
0.02288398874432913746
0.022935796807329354025
0.022996926925625722771
0.023069833547107461424
0.023154623123121512163
0.023251860854880311569
0.023359658442584304433
0.023475223944967184286
0.023594676178034245523
0.023714828276534434537
0.023832158899416318321
0.023943620604579447797
0.024044331173110899263
0.024131086925781041613
0.024201139011755742197
0.024252011816376473768
0.024284427087092282094
0.0243003354275665856
0.024304743500471764905
0.024302963162840980627
0.024297519338803461042
0.024289741846116243151
0.024278328929585916984
0.024270281557036851861
0.024265478565814065787
0.024260809514544463827
0.024251108480547376584
0.024230873642095054205
0.024203594150373326788
0.024172513477579125191
0.024138867431532779612
0.024104400729306949686
0.024069616277368633545
0.024035659805482213064
0.024002610012342710799
0.023971170212398539706
0.023940983333737342331
0.023912715621338662131
0.023885854314346408045
0.023861158336311055761
0.023837578722359718808
0.02381564071412443917
0.023793745485387710753
0.023772410987339703814
0.023750318351840070397
0.023728370416201422649
0.023705952142974572039
0.023683842290756540461
0.023661398720451226607
0.023638852505095765688
0.023615831381918570009
0.023593006051756664626
0.023570588315977761273
0.023549122993953341965
0.023528180608046372901
0.02350773711785347081
0.023486820867700486382
0.023465779956125917133
0.023443614929939279867
0.023421362105628135836
0.02339827586061959605
0.023375296646179374166
0.02335195195071371882
0.023328554223724509015
0.023305380134870157249
0.023282144473266212087
0.023259314448035792178
0.023235874473053624162
0.02321186887332341714
0.023186602051020337861
0.023160512001440557162
0.023133666516197890634
0.023107260835527877046
0.023080789982620805029
0.023055769415767733005
0.023030568018670542069
0.02300682084526177798
0.022982396000702856598
0.02295853846025151454
0.022933199576256106667
0.022907745167378128909
0.022880675683629260464
0.0228543447796383907
0.022826851719046768741
0.022800871617128418145
0.022773454803378702371
0.022747347770036202563
0.022719561224832311719
0.02269357350844408705
0.022666528317163432693
0.022642319590379704486
0.022617187510083257285
0.022594619464744360865
0.022570454109536560589
0.022547465059093822759
0.022522087472111238654
0.022497165074879831026
0.022469614938220972
0.022443420719140978054
0.022415147377431814818
0.022389227016963955674
0.022361643048027644853
0.022336345416778251305
0.022309278759136963455
0.022284724735194039874
0.022258126898546674172
0.022234369233895621976
0.022207700257568629976
0.022183031006833799775
0.022154819403166915726
0.022128275904972950078
0.022098544319639062961
0.022071159798445767752
0.022041077316529506663
0.022013594652230156212
0.02198382754548846782
0.021956501971463281142
0.02192704990591672759
0.021900400856480664591
0.021871660104216355397
0.021846386941592063624
0.021819166878974345647
0.021795401519239036153
0.021769172167777073312
0.021745921637124465686
0.021719372741225134033
0.021695541236724368017
0.021668317679031587342
0.021643958338296371419
0.021616470751765901742
0.021592217810050114146
0.021564989891594138482
0.021541046924628031584
0.021514091659615621616
0.021490254800012341396
0.021463593139314812719
0.021439959317076394407
0.021413710623240350683
0.021390427091099010332
0.021364214073671384392
0.021341046294693539337
0.021314830546356827723
0.021291234565188034422
0.021264504489484852001
0.02124023254537000735
0.021212954696916315467
0.021188768683995759523
0.021161636416678453188
0.021137476504712118114
0.021109792487748878231
0.021084690851306188419
0.021055505162216100329
0.021029470493401789671
0.020999867600013877311
0.020974692310197853157
0.020946993469696403856
0.02092437007529471954
0.020899090622505223092
0.020877724771470436427
0.020852978123285612067
0.020831003305275801879
0.020805410942453701761
0.020782517601373937111
0.020756367487018846651
0.02073362034639057716
0.020707780877266469821
0.020686033618872452788
0.020661183635329326974
0.020639962616595678574
0.020615436965934673397
0.020593810722936360669
0.020568817678436386587
0.020546542027928500762
0.020521089457006605472
0.020498399650505032266
0.020472764916553490289
0.020450405243028959429
0.020424954256395493751
0.02040329288448892997
0.020378045618045903531
0.020356528528021992919
0.020331303151148130692
0.020309742069159447686
0.02028507704876954601
0.020264193161317299585
0.020240707515082886209
0.02022119989337166357
0.020198590938975420628
0.020179621639415699225
0.020156924737048140944
0.020137168318053046134
0.020113761457032443974
0.020093266583680779308
0.020069534943391774406
0.020049409522515534987
0.020026049095774541703
0.020006884649495706302
0.019984137637891842554
0.019965272305856915369
0.019943143776556409436
0.019924279607645506429
0.019902649818096661283
0.019884521773537309347
0.019863473037473391991
0.019846197119975046708
0.01982549740133442151
0.019808344366925287328
0.019787451461528823143
0.019769940081726899289
0.019748478884399615907
0.019730781347772813339
0.01970948865641774031
0.01969194576772112168
0.019671124007198882017
0.019654528913417949887
0.019633963440824686586
0.019617710255905349004
0.019597403425327283161
0.019581009553506958931
0.019560673729883893551
0.019544143457741698644
0.019523996758650092459
0.019507883161906203889
0.019488087305618715522
0.019473004792959214271
0.019453914903617364196
0.019439499746706365851
0.019420981539136166621
0.019406526295282076899
0.019388134527997705897
0.019373782955148181883
0.019355082053413845411
0.019341112935930611372
0.019322304048937186116
0.019308163070181683096
0.019289545250354023925
0.019275704996781228145
0.019257403938094608264
0.019244143743494316473
0.019226796982147631443
3.3751817338893061709e-05
4.9033935600482243258e-05
6.9834968693208759253e-05
8.3280163335688333509e-05
0.00010081698481038169958
0.00013690167804043091269
0.0001806857446350691634
0.00021032457814564351579
0.00022360396728929353774
0.00023887821249973876505
0.00027782890055873900098
0.00034649301881849924002
0.00039387500866608170626
0.00041506987908623854287
0.00043758235529316608916
0.0004866962082493851878
0.00054026462480103636457
0.00057698227714667114484
0.00060760594085090781011
0.00065487372812078246086
0.00072731001704311887008
0.00080907389254193510554
0.00087429460721484021906
0.0009116224145022729531
0.00093412600068459221512
0.00096923209259160625004
0.0010481020530310628056
0.0011625048344008725824
0.0012751798596633745399
0.0013632626192102827254
0.0014181824212798740861
0.0014468830887382196169
0.0014676997434888052873
0.0015040384009942474319
0.0015918786636191064113
0.0018018975756859867323
0.0020481973177194361287
0.002241301218134453873
0.0023441311000363717135
0.0023794876934502690036
0.002398725564409283622
0.0024396121159582060019
0.0025201084792452711422
0.0025997113868894152454
0.0026622029916179936783
0.0027095700739845048413
0.002747265667638361733
0.0027758750891995992265
0.0027954418818137301804
0.0028108171382422264366
0.0028323962235433206187
0.0028757975950491451896
0.0029794922580751812685
0.0032384425269363446148
0.0035690795550701380316
0.0038625657149321322541
0.0040656771468117443649
0.0041712232411516602174
0.0042110652313986883521
0.0042278294424589937112
0.0042527199906808553498
0.0043093858185599019303
0.0044037640891784459937
0.0045205099687821003601
0.0046498746838830448333
0.004777803193105059458
0.0048877506111444377415
0.0049658147177475365705
0.0050084800121381481755
0.005031179383056159915
0.0050623435083790606012
0.0051385268211530691837
0.0053842863282494131741
0.0058603825779978361427
0.0062588433160317910597
0.0065218547878621354469
0.00665816877766845297
0.0067109439047822738722
0.0067269341279057844399
0.0067341329975556165482
0.006745381287976264309
0.0067687399499575754552
0.0068261963555381176966
0.0069926422352209098923
0.0072410739059669704948
0.0074553188064553962272
0.0076038286954521940725
0.0076765352256306486692
0.0076947488196023733353
0.0076969592606854399935
0.0077096742060217167414
0.0077912051550413398415
0.0081027447398046865273
0.0085116454332642040026
0.0087982183124203239971
0.008984344555917359032
0.0091044665614783987923
0.0091866367254737433395
0.0092432595133035803936
0.0092813582719022801742
0.0093171601683959513751
0.0093830726606860780092
0.0095510319156432189891
0.0099728330922657006802
0.010415083362626262678
0.010723594324374455602
0.010869460795971069497
0.010901204616027790686
0.010897382636565377395
0.010897069036361561878
0.010935261986073741697
0.011139137699668550871
0.01164614602055407365
0.012098698098831140932
0.012439013924193553784
0.012667819372126864347
0.01279422792259711332
0.012844737869643824135
0.012860247120611867713
0.012879102140216796418
0.012933421328484854401
0.013124742125739823073
0.013422458344589828852
0.013621566683588914523
0.013712123625350083889
0.013731237000640095919
0.013722777423112678813
0.013654992569802518881
0.01349374435060492726
0.01339225726645218266
0.013361075994424426519
0.013372158514572097046
0.013485931813857803679
0.013975149528483072486
0.014667986613997761533
0.015131310660020172443
0.015449345735267653798
0.015761198324592950309
0.016181882620290403973
0.016753927576155982354
0.01741811222263736289
0.018042012652611839202
0.018491266805170915311
0.018708919225430931804
0.018749262526724423672
0.018705232522152073771
0.018450417845395184618
0.018164164588608047723
0.018091398706451183864
0.018132924632726973163
0.018449655140514203272
0.019322214034872199628
0.019972127047017614737
0.020313042542595294987
0.020501665752164180412
0.020671097338614965316
0.020851188514036524818
0.020995435625668794344
0.02105676744394002764
0.021053425351252742781
0.020967555217812218482
0.020563790100594975252
0.019934309835394473098
0.019561761875891439666
0.019413166716545780105
0.019391751088881144238
0.019411813886572631266
0.019520943523507597317
0.019675200985040042917
0.019762910474065819438
0.019802354927288795539
0.019814196843023469674
0.019814583094077107411
0.019803567513325976562
0.019753019262184246668
0.019604074530945158478
0.01944221505527881852
0.019318553338453798435
0.01923432947408519611
0.01918411645404864696
0.019160649358361443034
0.019154311466531119545
0.019155291798336450404
0.019168068468131332222
0.019223649137229473216
0.019386614400707682243
0.019552677161185777477
0.019666029851777674237
0.019735976549630451088
0.023077142160278500682
0.023106702958846120355
0.023141927136555526939
0.023188909458353564041
0.023251635373716973698
0.023330185713638644518
0.023420184230199866254
0.023515397204019468369
0.023611477003019916421
0.023702056443501644256
0.02378360776763588369
0.023855274123619058663
0.023918104650638198627
0.023974186937482804688
0.024027335550485744153
0.024082072487556283047
0.024142182018413366196
0.024211049228389899118
0.024291803892413265514
0.02438500955200006981
0.024490580179930217936
0.024606714827807733836
0.024731022997277054415
0.024858636664671890371
0.024986052954216190353
0.025109452031419208368
0.025225275819386574344
0.025330078002536209753
0.025419956823570451915
0.02549375070917779193
0.025548602677080173295
0.025585405173790543021
0.025605181817001020084
0.025612312862067165842
0.025611641352356186857
0.025607941901982945315
0.025602587277494197326
0.025594738704796320822
0.025588474631899959383
0.025584099921893317664
0.025579086061095043098
0.02556847095669982986
0.025544177737493262148
0.025511766460392514
0.025475453141783826333
0.0254375921712434519
0.025399115249767435787
0.025361303080306336205
0.025324243372158196375
0.025288606924383290331
0.02525409779953188133
0.025221324622893379064
0.025190162844382340407
0.025160997947637937788
0.025133550267452023363
0.025107711136138195773
0.025082973208252375141
0.025058888633866661932
0.025034782222970682064
0.025010489661325706334
0.024985814652139805986
0.024961365930194084201
0.024936791702977075674
0.024912508587646948338
0.024887500980492541225
0.024862447781506459565
0.024836974107714897275
0.024812446603542464424
0.024788638754930533009
0.024766282979805580994
0.024744465784212528459
0.024723069083189858075
0.024701195231385329742
0.024678779925707036713
0.024655500262252518645
0.02463184881645917243
0.024607327415086536343
0.024582776898328051463
0.024557254035940979942
0.024532363931713544597
0.024506844069839005956
0.024482470529920183355
0.02445728575880907682
0.024432587479535299024
0.024406395530781738873
0.024380210551890029586
0.024352534601535243824
0.024325622354730114943
0.024297657550332911469
0.024271493758936859425
0.024244428752975378388
0.024219316854319671711
0.024192771646466139368
0.024167293202016878334
0.024139718567845316888
0.024112821425589063551
0.024083925284781610571
0.024056266639030144533
0.024026640342179175769
0.023998804116708249284
0.023968848800552843697
0.023941109436800570021
0.023911416191208775817
0.023884499353014870815
0.023856006667884368383
0.023830849755583253385
0.02380407232257386943
0.023780224347554425324
0.023754062337093300589
0.023729658109058263116
0.023702181567390099431
0.023675950278406927146
0.023646569308611319754
0.023619161913709791484
0.023589115179510147108
0.023561854015621691572
0.023532346450876522742
0.023505780689813425555
0.023476905083352813536
0.023451232251246928451
0.023422913905200917761
0.023397996745664065982
0.023369599246086045219
0.023343770720275703462
0.023313804733420904342
0.023286192425600812234
0.023254829237558765492
0.02322653165423253091
0.023194907144514491371
0.023166499643395347535
0.023134993917184824147
0.023106631904388292426
0.023075365158029159662
0.023047738734499251256
0.023017341827826671985
0.022991115820211457249
0.022962157731404985589
0.022937079364379744234
0.022908679943303991711
0.022883748916982169647
0.022854716196759591873
0.022829241252190705935
0.022799880668814269391
0.022774465801670647214
0.0227456774629110417
0.02272104160507461626
0.022692897797112483727
0.022668670843368196599
0.022640653501088778277
0.022616396177710100523
0.022588413812781329981
0.022564180486026156475
0.022536327851689727519
0.022512131581182575485
0.022484098451682553443
0.022459941625028012613
0.022431907578437187967
0.022407599910046743091
0.022379340830734631429
0.02235457365966022486
0.022325947207731133143
0.022301234388140422221
0.02227265913320682425
0.022247814134966178296
0.022218408201656117407
0.022192272643687619565
0.022160938150088502208
0.022133386926177604781
0.022101524232493240801
0.022074993513553013702
0.02204547210641785715
0.022022023935951619972
0.021995223386655510939
0.021973292181835704651
0.021947053843291063069
0.02192454314578458005
0.021897470046777032376
0.021874124619845294881
0.021846400228052349768
0.021823046841729764472
0.021795601491711009967
0.021773066285013156079
0.021746471479798981652
0.021724459181076974379
0.021698049750656384776
0.021675509674958005207
0.021648335363313359753
0.021624916461216628361
0.021597035489596610319
0.021573111057211425551
0.021545172810743321024
0.021521779865138299104
0.02149435558608460764
0.021471741462081896101
0.021444527870008955189
0.021421899292224461098
0.021394580051665838122
0.021372073784345378689
0.02134558068363204969
0.021324156182490779793
0.021299141268954532857
0.021279102226637862383
0.021254808601322738165
0.021235114290733499154
0.021210524721425538797
0.02119006617793734934
0.021164655278562160418
0.021143451636860721016
0.021117814704569325135
0.021097030327209494865
0.021071941593301404816
0.021052192084866666599
0.0210278610238618692
0.021008434072687442312
0.020984435220317423226
0.02096495937462292819
0.020941445172400770247
0.020922628756173757697
0.020899710585964435122
0.020881810030873960288
0.02085930249696246741
0.020841545016195357071
0.020818663964642960401
0.02080041383124093049
0.020776906132990994452
0.020758068211491960409
0.020734576626627976292
0.020715886666926579263
0.020692920820565646745
0.020675304460377335464
0.02065268934332408976
0.020635781252772999322
0.020613414984413575004
0.020596494030549500343
0.020574358170348173991
0.020557371032692180191
0.020535639531570809568
0.020519009938371083474
0.020497644361725183421
0.020482087942987451529
0.020461287643959887028
0.020446437916215899622
0.020426251722756215423
0.020411306353585744605
0.020391193474832463445
0.020376144508222233942
0.020355570245247683187
0.020340708846357608008
0.020319858931610892266
0.020304901998565369481
0.020284296086531507924
0.020269782625411826571
0.020249761401173099751
0.020235650008743104322
0.020216508505815331681
3.0825512401449304688e-05
5.5752421071728649853e-05
8.1012768301265601308e-05
9.4353801451004909147e-05
0.0001047929041304902927
0.00012969493313986704816
0.00017822021178375048738
0.00021534672505554988209
0.00023295258724109790035
0.00024570160704965454679
0.00027252770420770533379
0.00033767653139775725621
0.0003917338442792247773
0.00041818169942960879389
0.00044481292337156529441
0.00048600687021993314993
0.00053705677280567964103
0.00059595535215130367775
0.00066584581618077463665
0.00074453272797114636913
0.0008233510518184781633
0.00089149630564116361369
0.00094009404481512561132
0.0009675503792381790185
0.00098359935704138141792
0.0010064533321894758317
0.0010593961520245134128
0.0011965560736492484705
0.0013521223774596994368
0.0014656016456996510521
0.0015309464804368901839
0.0015606928438327159672
0.0015777796667366898037
0.0016059557124867844709
0.0016809037241551152975
0.0018987448530028243603
0.0021567688104811668683
0.0023456551752961867299
0.0024600444961670893916
0.002522714295167037199
0.0025608269271056157898
0.0025932566812265061412
0.0026303399559930327675
0.0026798036317432767477
0.0027434572671775699255
0.0028186120400806049212
0.0028961602210858181095
0.0029617349486084866214
0.0030060062480942242868
0.0030307955748126265069
0.0030481803153303522677
0.0030759992288531727914
0.0031384126741534957607
0.003314642446884859435
0.0036700905070313526515
0.0040126315722905751826
0.004274969432786054381
0.0044317345035565329503
0.0045038568784946395387
0.0045322420956080142554
0.0045529246695275964185
0.0045906251257065077906
0.0046757288652930981132
0.0048015070412540947556
0.0049378912650430133863
0.0050638471468398846623
0.0051604710787056095461
0.005218025516424393967
0.0052438985651062555021
0.005259585670136350706
0.0052881859981610875726
0.0053690267273996741815
0.0056489807434284815962
0.0061365925134764364585
0.0065121452422795449502
0.0067416831464137232099
0.0068487942327046785057
0.0068865590317114143068
0.0069029468883569236951
0.0069291318703700579759
0.0069897259525578334105
0.007143482664377340946
0.0073588266402445532896
0.0075826872082317723842
0.0077914720949579744508
0.0079524163907418107811
0.0080422798063079295461
0.0080697145487556784516
0.008069050236868111417
0.008064182598636284241
0.0080808667598509711233
0.0082071705206918019182
0.0086661444922685893638
0.0091759399941546710561
0.0094946878711797619288
0.0096658932811446648947
0.0097463307447062282052
0.0097808720789044345523
0.0097971798083556875525
0.0098139674137366714884
0.009847835550646926589
0.0099380284012155362811
0.010232258100459254782
0.01077072442817980473
0.011184366484520390228
0.011406846017717834144
0.011470683110186912293
0.01146621774151533428
0.011418470082611287611
0.011385332021801836122
0.011396263004022839579
0.011502238802853838665
0.011892954703266012118
0.012343221613795809025
0.012653161028476718822
0.012842209189817569912
0.012936280372322328872
0.012979660811345845178
0.013028712631483970602
0.01313957859370655859
0.013433198704217313296
0.013788848029139415957
0.014059667070618155071
0.014214105801937047466
0.014268457956769653103
0.014272770339616642696
0.014246561773688496549
0.01412399161695158771
0.013986139821987510906
0.013926105415114952216
0.013920827161955393741
0.013968765720137740413
0.014241387134890677937
0.015123825564414680386
0.016044546070183050152
0.016611715011844819384
0.016878619777542975405
0.01699050416459949378
0.017119224122362951962
0.01742255925368566688
0.018135983618023918118
0.018870732409700684273
0.019387169395275224981
0.019627545377926790271
0.019666384319198274011
0.019601944885324153883
0.019265713088034180922
0.018939434027500881563
0.018868445502367256483
0.018933251373250234439
0.019377477744208448929
0.020486912280476495679
0.021235766745397389316
0.021583782301357750527
0.021741964821745628916
0.021891457717764566115
0.022084764818173889533
0.022262963838967059216
0.022353841291288666093
0.022359779694395228583
0.022290938482734713039
0.021929634875740317002
0.021209539680909213905
0.020740179928353356942
0.020518958886900875993
0.020458397926808442185
0.02045767210776641698
0.020482511098733408722
0.020573950633335554711
0.020689505762050579285
0.020778678914385916021
0.020840744848471558226
0.020875695438923775465
0.020887072300052676732
0.020885893660592867727
0.02086113323133883049
0.020751559127066828564
0.020574366029742174183
0.020446953960762400543
0.020371314806409038245
0.020334770085723014033
0.020322701696493108287
0.020321207377149892032
0.020323067127483690486
0.020331413677643017657
0.02035825529644980092
0.020437113987377665547
0.020538972114818396936
0.02063404693443115015
0.024242783375076289859
0.024306879424581529642
0.024384296640446903592
0.024478531107580279308
0.024587988047157369881
0.024708550820481130217
0.024831991829599050353
0.024950435789030195322
0.02505742569811563944
0.025148667792653744274
0.025222946276636921265
0.025282460203350481942
0.025330836305343506359
0.025372519863251685041
0.025412671802922202208
0.025456360261631859332
0.025507794200368923143
0.025569178529792329496
0.025642809313212489714
0.025729205671062790189
0.025827992655961050372
0.025936829712321914782
0.026052839352225309194
0.026171591485296269441
0.026289463649406111245
0.026402856108179665467
0.02650861328651506546
0.026604370141923676385
0.026689722540709781562
0.026763526821122034238
0.026825105841937108703
0.026874147474713123984
0.026911196894352534814
0.026937411791043041481
0.026954527686508439333
0.026964256842038233225
0.026968777377863070027
0.026970196957584742503
0.026970010635406507782
0.02696955625405711432
0.026968203586994209803
0.026965718364781791211
0.026961975960463176877
0.026954684562351886867
0.026937887432825224215
0.026899033286465343778
0.026851321956290381127
0.026804571201295764038
0.026757147025099542459
0.026712246263739230362
0.026667538323626588381
0.02662628403605347624
0.02658606691695906965
0.026549688286470023157
0.026514276987927028195
0.026482248154979275839
0.026450626738201241106
0.026421529376147150775
0.026391784398291484592
0.026363538723975083605
0.026334247359239268405
0.026306559721214515385
0.026278058300911025236
0.026250926647830543498
0.026222349749098608496
0.026194760480414514686
0.026165920871662438907
0.026139227117908305636
0.026112391326388987439
0.026088545617012952327
0.026064117626299836139
0.026041971552193728806
0.026017579561050961645
0.025994781755330088197
0.02596888211437834923
0.025944527152337720777
0.025917003967606443843
0.025890875577455167711
0.025862043110427376802
0.025834925791346999985
0.025806244057812358084
0.025779851327615149748
0.025751952946312106629
0.025726245103885818366
0.025698005134423936718
0.025671864265656076098
0.025642581106468213814
0.025615625952800449155
0.02558560732104962071
0.025558412733448387932
0.025528706777261184202
0.025502047470170308846
0.025472455993396338897
0.025445451998370571117
0.02541486032502457762
0.025386984144811251124
0.025355631609045043567
0.025326990261410511907
0.025294811665439169424
0.025265456420945204413
0.025232855663507604976
0.025204210193348258739
0.025172495791187445013
0.025145338978054137397
0.025114861139795177647
0.025088795158762534909
0.025059483973124706269
0.025034051771069289888
0.02500478649533430936
0.024978866210323535241
0.024948235956378048833
0.024921057245296352606
0.024889155833748188157
0.024860963140895652596
0.024828598246038398323
0.024800198382555461996
0.024768069560655504857
0.024740444126007725412
0.024709002167915002091
0.024682424889408336593
0.024651736045391409863
0.024625669974433484627
0.024594956232711320115
0.024568105466420093325
0.024535851112015959891
0.024507431056540782133
0.024473921958211929117
0.024444979802497695393
0.02441133201443988418
0.024382383660811812048
0.024348666263882469407
0.024319714912534092649
0.024286283081300423514
0.024258132725952716302
0.02422578483087338766
0.02419893966152836251