/*--------------------------------*- C++ -*----------------------------------*\
  =========                 |
  \\      /  F ield         | OpenFOAM: The Open Source CFD Toolbox
   \\    /   O peration     | Website:  https://openfoam.org
    \\  /    A nd           | Version:  12
     \\/     M anipulation  |
\*---------------------------------------------------------------------------*/
FoamFile
{
    format      ascii;
    class       volScalarField;
    location    "0.007";
    object      k_0;
}
// * * * * * * * * * * * * * * * * * * * * * * * * * * * * * * * * * * * * * //

dimensions      [0 2 -2 0 0 0 0];

internalField   nonuniform List<scalar> 
75962
(
3.2403415025451899948e-05
5.1013313931646351988e-05
7.120085669623547268e-05
8.2669886838065688396e-05
9.3698038868229703178e-05
0.00011869833651535129115
0.0001680264015898160824
0.00020321779098103319732
0.00021813795537062928933
0.0002322148035143298977
0.00026818291560016686631
0.00031753465483398799103
0.00035009246716973701271
0.00037864260908327914464
0.0004158438962330982566
0.00045853056772706443211
0.00050059816696125720471
0.00054428770509548716604
0.00059493572593506726179
0.00065465805225411598418
0.00072263237392069666794
0.00079250286844361470581
0.0008513210341390841816
0.0008887083917200676135
0.00090878638247300018004
0.00092956022228907067909
0.00097300536337551965516
0.0010771425335070960397
0.001205212820278317486
0.0013146709868765485679
0.0013903220907108984703
0.0014310013195329705001
0.0014502931587802830437
0.0014735950387473810246
0.0015310071104749985345
0.0016912348369122252954
0.0018806482504316369714
0.0020237541712057991079
0.0021259787819658012946
0.0022101000047903521413
0.0022950560063079578077
0.002381544565673673463
0.0024561894173777106334
0.0025110196847338691825
0.0025519608185584556452
0.0025900995363148976609
0.0026301395587598696245
0.0026681591194795566992
0.002699102584487480215
0.0027219073406024672096
0.0027437171581772144997
0.0027816863414373005359
0.0028673841479833358202
0.0030878956402439544301
0.003396706944057630885
0.003683989679826561725
0.0038945187477228749608
0.0040094425885125323239
0.0040536892494585389721
0.0040698612715575586962
0.0040912313462306316991
0.0041346472331562945934
0.004205959773266963915
0.0043062335638007920996
0.0044303382781924124934
0.004563963515590025409
0.0046854134127645701707
0.0047739648408853668782
0.0048225075005634441758
0.0048494137934176166638
0.004889173547352956492
0.0049884734311397543188
0.0052810253044919246851
0.0056625174531549186951
0.0059533065902348568724
0.0061312779089019112805
0.0062155973724346419429
0.0062450710154551168293
0.0062535583689037653812
0.0062616514968178056677
0.0062793968109988058945
0.0063263033337912786061
0.0064648974676930577241
0.006720438392318283348
0.0069782817092376167936
0.007199514885092249232
0.0073499408375965044268
0.0074186814913592353041
0.0074314737827259206085
0.0074318935678440228507
0.00745052342451529067
0.0075749523388809756122
0.0079544850637038588825
0.0082929568630747598629
0.0084962778582915957776
0.0086103140379608991695
0.0086805322970612084493
0.0087347170386564004785
0.008780111460455493344
0.0088181767592529370497
0.0088646443269957166111
0.0089552662869693371028
0.0091864178991388403123
0.0095835560811226867123
0.009942253846246253482
0.010176569561477055714
0.010268607358471452951
0.010278604561523144167
0.010272174619758506903
0.010280665362822915404
0.010373319884391950935
0.010755157752352043077
0.011310141925594856954
0.01174723532188240438
0.012075330473310063456
0.012300611740158739343
0.012430983825020967826
0.012484698917876730154
0.012496490566656640736
0.012502962718836120246
0.012528262278348543945
0.012644790833934308263
0.012898611249858906933
0.013058939950428484489
0.013115006598870033658
0.013118615477255337817
0.013086451578634819559
0.012939774605430311161
0.012763985094565095599
0.012676497212618506247
0.012658103507256008441
0.01268319510144445654
0.012861484471415956035
0.01350309540580265158
0.014209439728932043989
0.014620400633466743012
0.014812118161875229352
0.014955360698644339437
0.015239810929187897967
0.0158158468342818187
0.016507107396374853109
0.017144120793122403362
0.017588518744756951456
0.01779703595889023382
0.017833040877098211424
0.017789201844471712322
0.017547430860073449238
0.017300008361884246927
0.017247443264068781921
0.017304769695322803902
0.017690804942421239215
0.018665761358587731888
0.019335212757510142345
0.019624771181620426219
0.01969146858386055729
0.019690693734368866497
0.019682072158122815297
0.019686496750655074067
0.01969000000838215178
0.019671212351696380771
0.019550775195264179229
0.019098544267784366146
0.018566510594956946167
0.018265391680396588642
0.01815022229833477066
0.018136592689168222481
0.01815964637793900105
0.018278652155774569726
0.018456660780835215663
0.018567320952068869927
0.018625193724023957065
0.018647315077711234393
0.018650535328109341116
0.018646796774529718344
0.018625827383967612227
0.018548700136212424583
0.018397663504096120612
0.018269246091257688308
0.018174386449102609975
0.018112948275748642912
0.018080077138711070361
0.018069012663024269782
0.018068206542301203793
0.018074455523871584689
0.018106008720206217405
0.01822219229840660662
0.01843775862097452381
0.018623698303442817042
0.021977110295052174754
0.022029584113026145359
0.022088787869563097227
0.022157044554618768317
0.022234144573929498501
0.022317012847960185362
0.022402106541962098218
0.022485852472384264267
0.022563411238114762514
0.022632745504692491911
0.022693813703397933829
0.022746429194062747076
0.022793403680056216476
0.022837741744896781354
0.022883856247986594096
0.022935695147765191443
0.022996875323824265969
0.023069846659067139161
0.02315470731183689318
0.023252011589628893834
0.023359860269941939981
0.023475457270939883297
0.023594924434924804263
0.023715080367720298149
0.023832407176379511587
0.023943853866988742268
0.024044532644267275351
0.024131236309843980686
0.024201208795045510425
0.024251976556663255163
0.024284272635076691732
0.024300068123730832192
0.024304398683439452228
0.024302575098080193144
0.024297130413464502335
0.024289388064457427541
0.024278030699546919446
0.024270047080197518219
0.024265280852148771867
0.024260608874144690139
0.02425086346766788456
0.024230570279097803782
0.024203255264797721852
0.02417215602448682249
0.024138506913730945619
0.02410404626364370459
0.024069270007887715035
0.024035320406854736308
0.024002276787394229152
0.023970845518975100047
0.023940672775579343451
0.023912424153372718871
0.023885582800247818352
0.02386089994800760436
0.023837320835643421163
0.023815368663454017373
0.0237934483074463618
0.023772084852842996494
0.023749964832305889284
0.023727993671716473417
0.023705554030393080622
0.023683423764258058203
0.023660961887189690955
0.023638404899116713387
0.02361538658584243916
0.023592581676926897838
0.02357019882681474221
0.023548773453022430607
0.023527864906364458208
0.023507439600465987461
0.023486522851817438762
0.023465464973336062904
0.023443275297820583697
0.023421000233520637701
0.023397902094855028282
0.023374925833881086967
0.023351595263404349712
0.023328218513912410415
0.02330506308414146549
0.023281838159447811737
0.023259005713921705738
0.023235549539021051191
0.023211517625509381357
0.023186221275287629412
0.023160108325382941508
0.023133256658709883125
0.023106864284242922131
0.023080424651011472587
0.02305544189582224221
0.023030274213478800494
0.02300654652775688605
0.022982122007550759291
0.02295824826360571419
0.022932883904829171051
0.02290740484913049782
0.022880320456749814184
0.022853985182572363749
0.022826496231745645182
0.022800521729452197239
0.022773110066285927322
0.02274700968773194637
0.022719237897360338579
0.022693277274692235518
0.022666271443966035798
0.022642105625193663376
0.022617009353925177778
0.022594460037523824564
0.02257028915247003345
0.022547272156985823793
0.022521850611407788489
0.022496879072265173888
0.022469288144840029314
0.022443069812687073405
0.022414794219288387833
0.022388890278570449527
0.022361333819602882689
0.022336066765025607006
0.022309027171262690165
0.022284489743345611834
0.022257896220737406756
0.022234127122192266085
0.022207433056993974158
0.022182730431833681123
0.022154483846301531447
0.022127911421876991782
0.022098160753735277689
0.022070766398761793026
0.022040679779933923521
0.02201319626494877349
0.021983429152157393099
0.021956107223648616
0.021926666148203443479
0.02190003708302718996
0.021871326146997775025
0.02184608728145600795
0.021818899206582444833
0.02179515569747355816
0.021768933594796136682
0.021745674292011581141
0.0217191053640117121
0.021695249640354744708
0.021668004915824934375
0.021643632917009127808
0.021616142850898689698
0.021591895314004096867
0.0215646762712151073
0.021540741772934031417
0.021513792243334280141
0.021489959408011412301
0.021463300006410595405
0.021439668675531996928
0.021413422088220217254
0.021390139003122695532
0.021363925060760933367
0.021340755010678294501
0.021314535694341860822
0.021290937562920140419
0.021264207007468304
0.021239935986518656413
0.021212659656068645619
0.021188471817553147097
0.021161331117050954237
0.021137153820540099947
0.021109445713906934555
0.021084318699273223857
0.021055116461673965139
0.021029081277906268993
0.020999499774242494365
0.020974366238957681263
0.020946722231064408143
0.020924154562701250543
0.020898918533049235663
0.020877578579396836866
0.020852837148301647807
0.020830851762747917832
0.020805239467315102958
0.020782325641995821885
0.020756162078545279531
0.020733410786919832108
0.020707577001123723959
0.020685839553433223864
0.020660996577770599641
0.020639776527650453147
0.020615242680250552704
0.020593602068458980586
0.02056859041156009274
0.020546295630476593685
0.020520825131675697606
0.020498120534838397411
0.020472474607510702388
0.020450104612249057207
0.020424644847254296715
0.020402973634471546077
0.02037771816808321701
0.020356196048604658505
0.020330970885151011807
0.020309418934433966925
0.020284769505715449789
0.020263905719675946032
0.020240439214871883133
0.020220942520129486786
0.020198333699252054435
0.020179353353921604397
0.020156636900411004781
0.020136859302820563772
0.020113432683769322945
0.02009292478335012247
0.020069189471677708475
0.020049067077020817085
0.020025715862610080076
0.020006561429936932373
0.01998382407486601689
0.019964969089007411629
0.019942848570426895821
0.019923993157735880866
0.01990237143321932356
0.019884248334689422211
0.01986320175623319112
0.019845922570883026831
0.019825215317380285446
0.019808052298423989984
0.019787149903029137982
0.019769631705815873812
0.01974816915575726764
0.01973047560490368002
0.019709189327180968304
0.019691654527085215159
0.019670840789408956806
0.019654248722750476686
0.019633682772555841739
0.019617426294559644345
0.019597114367426116122
0.019580717256108454843
0.019560380552992879394
0.019543853881770257425
0.019523714202863747674
0.019507608674343705074
0.019487821857365444922
0.019472745394466684649
0.019453658610906313792
0.01943924345940458917
0.019420720557683825158
0.019406258938611420373
0.019387858960091514104
0.019373497149618435637
0.019354787968784946395
0.019340810234402393275
0.019321994551665420264
0.019307851642094489564
0.019289237361059061865
0.019275406833310974181
0.019257121887925575388
0.01924388350980324458
0.019226561534490170524
3.3764569739735930036e-05
4.9042790973650152967e-05
6.9829712538370169788e-05
8.3256466749483007232e-05
0.00010080891077869394662
0.00013693701552903333432
0.00018071689677189573778
0.00021029598541375489943
0.00022354708468935293527
0.00023885398690763230212
0.00027791079071680624109
0.00034656149741148039017
0.00039386152411547629536
0.00041501413354333942631
0.00043755502953472867438
0.00048671197867388799269
0.00054025029893125272977
0.00057694009318433054755
0.00060757921422717302024
0.0006549074445655364389
0.00072738612823722889177
0.00080913188459478450985
0.00087428304651831427029
0.00091153758538565783209
0.00093402820376332375534
0.00096920389960781399338
0.0010482291181854071216
0.0011626579139631212142
0.0012752763208186115775
0.0013632667737879489937
0.0014180921377919188543
0.001446724756576433157
0.00146752951509385339
0.0015039473649196321084
0.0015920852766395739066
0.0018024532762641936809
0.0020486415131889140241
0.0022414756162817306602
0.0023440301711632619344
0.0023792456330081592289
0.0023984938795434062285
0.0024395159901006934454
0.0025200860928498562165
0.0025996501103515033335
0.0026620730396295371085
0.0027093954840646163745
0.0027470591690296015594
0.0027756309746750098232
0.0027951701499516934564
0.0028105523841724477756
0.0028321811922627769011
0.0028756926123297364001
0.0029797354667487436705
0.0032392253468553084544
0.0035698055322049668421
0.00386302595116939625
0.0040657775470768885845
0.0041710316275083408194
0.004210736865025216033
0.0042274956308065844354
0.0042524567295624112959
0.0043092674192800094549
0.0044037286737353704275
0.0045205300766978269433
0.0046499174099873851265
0.0047778219218592571371
0.0048876943221634831099
0.0049656439054050413584
0.0050082047022455486451
0.0050308643736460051041
0.0050620814738058465126
0.0051385313168662155592
0.0053853205754697108104
0.0058615191470859310391
0.0062595703280488934964
0.0065220789545072134497
0.0066580062151799330669
0.0067105737952872935442
0.0067264920565791464641
0.0067336883871172677554
0.0067449600522430860905
0.0067683735637441332436
0.0068260229167288058796
0.006992979045400499194
0.0072414136749061755807
0.0074554945337966440494
0.0076037515059594988631
0.0076762040743938017226
0.0076942635959708054888
0.007696451108881258163
0.0077092820820190378558
0.007791332415647305408
0.0081039234086085192715
0.008512485368527038937
0.0087986010600502925078
0.0089843757899151013846
0.0091042934706526204569
0.0091863606539783430188
0.0092429064534897496103
0.0092809401241214853351
0.0093167561806304453192
0.0093828347495091123792
0.0095514410995527487813
0.0099740110603769548125
0.010415892097589593904
0.010723840930253898326
0.010869195840670963296
0.010900704616139733627
0.010896863820033363818
0.010896607804045303422
0.01093509621335904923
0.011140045410431044515
0.011647609580966458709
0.01209964689146773853
0.012439534498120571188
0.012667931587756722095
0.012793995737003554386
0.01284429485121029238
0.012859752948465034278
0.012878667457387785525
0.012933233480931838333
0.013125302319807250276
0.013422888483249607872
0.013621624622654350534
0.013711855526324952595
0.013730787644810771991
0.013722191236967188829
0.013653946227472938194
0.013492633147829113938
0.013391477764488127905
0.013360540668386457902
0.013371802722181419174
0.01348632448551559046
0.013977451719674098204
0.014669675797520348448
0.015132234266515356275
0.015449960924204865845
0.01576202594414221822
0.016183243051167611748
0.016755791950778708282
0.017420080092250975201
0.018043557833148062691
0.018491988940683917048
0.018708800971393015761
0.018748689421743316291
0.018704246645046360836
0.018448460976733038058
0.018162997812612366455
0.01809088560327552081
0.018132911070465919379
0.018451603518105087059
0.019325193121709029198
0.019973499800838317997
0.020313466713937838176
0.020501758867013296361
0.020671196791146168731
0.020851234082385039503
0.020995205111299014566
0.021056211836161530665
0.021052725970466021344
0.020966281920737402794
0.020560772905536275901
0.019931908834173776845
0.0195603588042495731
0.019412461966035163968
0.019391328984410666908
0.019411593200617270616
0.019521236914352681213
0.019675310636548527105
0.019762767360593430643
0.019802013233501270656
0.019813720651138715806
0.019814041681390968941
0.019802918440737012074
0.019752092890780743178
0.019602787337366707476
0.019441073897612091981
0.019317566857287193915
0.019233493766320511331
0.019183417393721455962
0.01916006309064044455
0.019153799134291663725
0.019154819723478044846
0.019167697212752188296
0.01922358295940076317
0.01938692827718415182
0.019552789039930972698
0.019665952515176353399
0.019735756885887151962
0.023076872845501264497
0.02310641752041613442
0.023141682195518476634
0.023188744519281875162
0.023251563203199803603
0.023330185682353982157
0.023420212532137892059
0.023515412353104045429
0.023611449362881131026
0.02370197408505305553
0.023783483458172462871
0.023855133002507494799
0.023917967371235224899
0.023974063923323699066
0.024027230520258853474
0.02408198666752050382
0.024142120214732241956
0.024211024737838177101
0.024291832457833333059
0.024385102250510621441
0.024490739433853575546
0.024606932545551133545
0.024731280205316650417
0.024858911408501809664
0.024986327606084855063
0.025109711716320284175
0.025225508157020896938
0.025330268207985753154
0.025420088463287575375
0.025493800872058696577
0.02554854755759576948
0.025585231668468117611
0.02560489588445172271
0.025611947795985485349
0.025611245689957554128
0.025607549417281126602
0.025602235660090337521
0.025594437137070328442
0.0255882233948118952
0.025583873860492340607
0.025578848123096537687
0.025568179237871597326
0.025543807422725588879
0.025511367419899018405
0.025475046626896202806
0.025437196042944837382
0.025398737696361289168
0.025360942035983852216
0.02532389063746940186
0.025288255093459825751
0.025253746129127802728
0.025220980261685177481
0.025189834353797870697
0.025160688579451639946
0.025133253733053854961
0.025107413875944426668
0.025082659907593677501
0.025058548105246335885
0.025034411294136620779
0.0250100924875764144
0.024985398142454963433
0.024960934068493548232
0.024936344852384273452
0.0249120451856903527
0.024887024680122295933
0.024861970927555428895
0.024836515391917623335
0.024812024442356705317
0.024788263506003389847
0.024765952915017194758
0.024744166110569211503
0.024722777664085367894
0.024700888330258959774
0.024678440397695358688
0.024655122715648278287
0.024631439797103502759
0.02460690306794190152
0.024582354961155006984
0.024556849779977182185
0.024531984544156632683
0.024506488532213214354
0.0244821301046983901
0.024456946598234888951
0.024432235452872961418
0.024406020251906156149
0.024379810253909894868
0.02435211824398574032
0.024325205630738849089
0.024297259035200930583
0.024271124814193478086
0.024244091130093566727
0.024219001317380875471
0.024192462422631375724
0.024166975161915963538
0.024139381401218833884
0.024112462926404985147
0.024083549835196896988
0.024055880020639245492
0.024026249644212661905
0.023998413977072783482
0.023968465249006854628
0.02394073978587837187
0.023911070965810077293
0.023884189031236281037
0.02385573872228777606
0.02383062305946068854
0.023803876685898246041
0.023780042351831839204
0.023753872145015512279
0.023729440072168841297
0.02370192195761575138
0.023675645861797819242
0.023646228351172620535
0.02361879974758091319
0.023588750597514539925
0.023561503356996558317
0.023532019954016106938
0.02350548133368506043
0.023476629377189479897
0.023450970205081179271
0.023422654203882238566
0.023397725729850653298
0.023369306132093752015
0.023343450127700567098
0.023313457317794512164
0.023285823857566168016
0.023254446478906860146
0.023226139824518689248
0.023194508009433564139
0.023166093761725733285
0.023134581302857643026
0.023106216490869010971
0.023074956001437309239
0.023047347193807125876
0.023016978563597339374
0.022990784739237039858
0.022961854049851543325
0.022936791416500339202
0.022908393272267728313
0.022883449936051448309
0.022854398464499586091
0.022828906421291504658
0.022799537282522461951
0.022774126154276177342
0.022745351547515557655
0.022720734203800170559
0.022692607451900614207
0.022668391270910814156
0.022640375995858202235
0.02261611378818690829
0.022588122204541698224
0.022563879391904781424
0.022536018797683809306
0.022511817297799260884
0.022483782835812374939
0.022459627744023196588
0.022431596867869302292
0.022407293621292904279
0.022379038345180981423
0.022354273762875041809
0.022325646926730356723
0.022300927071556377046
0.022272334967947851614
0.022247462851519479027
0.022218023509757919842
0.022191855620979538538
0.022160501721909697803
0.022132953924470958468
0.022101122614666689897
0.022074647845693625564
0.022045194780328219303
0.02202181169543787273
0.021995059223898529022
0.021973153833185373601
0.021946917300822228053
0.021924391538525055817
0.021897294424509845118
0.021873925784561577823
0.021846187878551696221
0.02182283341942982749
0.021795397541387179219
0.021772875289459068388
0.021746288694054483059
0.021724274923718357028
0.021697851459999618895
0.021675288042124082888
0.021648085755402314556
0.021624640487298112113
0.021596738041944892744
0.021572799420893427891
0.021544852808495894986
0.021521453524919739037
0.021494023560562628555
0.021471401866503682376
0.021444181452506469454
0.021421550547899240874
0.021394236906441460588
0.021371747010554113105
0.021345277648770175777
0.021323879647522050312
0.021298886196240641305
0.021278857000066625504
0.021254558718863416494
0.021234845593480176917
0.021210228842573623093
0.021189741610203208927
0.021164306762234873227
0.021143090152355596689
0.021117451845570088531
0.021096675940455805742
0.021071603415212827176
0.021051871651540078612
0.021027556168196764874
0.021008142402160537993
0.020984152450700517545
0.020964683538071703095
0.020941172875805113412
0.020922355452322648206
0.020899433038801863011
0.020881523041667710006
0.020859002737839214825
0.020841230796415047277
0.020818337571841694783
0.020800080308883091285
0.020776571413376302561
0.020757739289584617448
0.020734256047314107013
0.020715574894381819093
0.0206926165061358594
0.020675001664028521547
0.020652385418194987854
0.020635473073657862458
0.020613102221319620083
0.020596180697411918536
0.020574047445160881936
0.020557068486337912172
0.020535347784709383212
0.02051872966143607202
0.02049737522787490468
0.020481824267062728739
0.020461024710967827545
0.020446171039601331726
0.020425975381652174134
0.020411019291781754004
0.020390894553474928769
0.020375833394807123938
0.020355250443766636365
0.020340381361614524175
0.020319527129672103338
0.020304570949319301204
0.020283971369694953069
0.020269470524700961001
0.020249466495099215785
0.020235377779443813884
0.020216260830959755651
3.0863229893805915727e-05
5.5776255145430061663e-05
8.0984488964325039182e-05
9.4280377636051686859e-05
0.00010476192405296966238
0.00012973938478972343955
0.00017825897314056957793
0.00021532681762805212788
0.00023289471228918733211
0.00024565909466442133538
0.00027255220347286471206
0.0003377682386724723115
0.00039173485683783898937
0.0004181334267036199235
0.00044477806245437321881
0.00048599259235019361299
0.00053706846046351142468
0.00059600693215396734898
0.0006659231135207650679
0.00074461264441435062213
0.00082339987126037498481
0.00089148685960505958704
0.0009400175957792778229
0.00096741632903640448204
0.00098345285528095142437
0.0010063541292709816087
0.0010594592044696766586
0.0011968622352981493802
0.0013523092447411588692
0.0014656342695503661328
0.001530849301641735603
0.0015605140796470309827
0.0015775801330596517062
0.0016058088396117158915
0.0016810311228540597561
0.0018993710319399836027
0.0021572093288039898874
0.0023458259441744328151
0.0024599988929866721532
0.0025225473341381090923
0.0025606135721663405604
0.0025930517845998259444
0.0026301745208299068604
0.0026796757532253482649
0.002743359284535821889
0.0028185339345107879999
0.0028960640773996685488
0.0029615733699646013856
0.0030057720575569317478
0.0030305230902125004748
0.0030479175261847479307
0.0030757974397622599334
0.0031383965950008644447
0.0033152874605129104522
0.0036709152008077656701
0.0040132597203862280244
0.0042752443369314880109
0.0044316755667298292354
0.0045035962700283151475
0.0045319187473154389292
0.0045526260581136282143
0.0045904149193076474941
0.0046756972593241692693
0.0048015377726313458739
0.0049379158279555124961
0.0050638000989322437193
0.0051603044739011172393
0.0052177390661421662807
0.0052435427511746254478
0.0052592366403753920689
0.005287910516635951734
0.0053690738920385196881
0.0056501255135260842685
0.0061376699179909758805
0.006512737650470764271
0.0067417780843595925822
0.0068485384927354561041
0.0068861401646102098073
0.0069025134446123763074
0.006928773619690274839
0.0069895729312039450026
0.007143701759027890584
0.0073590922133777401937
0.0075829232766739277857
0.0077915923865921662278
0.007952335375375175
0.0080419753099484660164
0.0080692493765776984044
0.008068528390384134899
0.0080636568629675071246
0.0080805095731365829403
0.0082075808066700492449
0.0086678257970335126359
0.0091769431368087048956
0.0094950221366462035644
0.0096657601693561322198
0.0097459442714355522946
0.0097803799533505257624
0.0097966565458502009173
0.0098134640239074966833
0.0098474176423318827978
0.0099379642881918597852
0.01023340436482230234
0.010771856620748211306
0.011184884211482162483
0.011406693817120864762
0.011470128422226296902
0.011465567700375253746
0.011417706509304143686
0.011384781308665084879
0.011395862425578925925
0.01150247857654481537
0.011894316100372998371
0.012344091502511384678
0.012653549763999946687
0.01284218790060435815
0.012935967355673478121
0.012979245176041960888
0.013028400512511757736
0.013139656739505053973
0.013433993665552748306
0.013789457652472384905
0.014059896124452428076
0.014213943871762984433
0.014268041138867560216
0.014272265003840753361
0.014245834054125671581
0.014122809576533307263
0.013985209479474323274
0.013925458549593976165
0.013920338246323996773
0.013968678956538501182
0.014242831309430516867
0.015127425232451831988
0.01604684148421648901
0.016612715841008499074
0.016878739188643496899
0.016990365886262494277
0.017119375278165333693
0.017423833512440263516
0.01813843238564120941
0.01887257759914176547
0.019388034158252017564
0.019627445107786942874
0.019665788574484085321
0.019600790111939738608
0.019263450352007809724
0.018938214205317719513
0.018867949744734054118
0.018933406899291974068
0.01938030597469450611
0.020490442860348123677
0.021237237139477782577
0.021584026717759181163
0.021741846925353448816
0.021891483809587778536
0.022084905331412885143
0.022262891429996628512
0.022353364975098734962
0.022359081272999271894
0.022289712891940881984
0.021926447432270290694
0.021206678248459186892
0.020738366365498733107
0.020517976000658202929
0.020457858042802347376
0.020457259640877897833
0.020482306301937657639
0.020574054056996141787
0.020689516559897605519
0.02077856700090089867
0.020840497039760021158
0.020875314597965214519
0.020886592634912323069
0.020885352776999682733
0.020860371431002656256
0.02075025415179793456
0.020573125445255142918
0.020445923456156679665
0.020370496252841666096
0.020334122625127681872
0.020322165241873461905
0.020320720659843558714
0.020322610843498376682
0.020331008891482052481
0.020357981229301082282
0.020437080266095839637
0.020538917556649563534
0.020633957301235204829
0.024242630186783815233
0.024306739706271538598
0.024384207588951541806
0.024478518893685321384
0.024588053885052356395
0.024708665430176000172
0.02483210479840996382
0.024950498101525223765
0.025057403809979849479
0.025148554257853592692
0.025222761938606005211
0.025282242592882642196
0.025330621489643063288
0.025372331508883769896
0.025412519138131604846
0.025456242346646729136
0.02550770641141473366
0.025569121632623544038
0.025642792920050980904
0.025729242399272690689
0.025828089848393027961
0.025936984216422032806
0.026053036270847686195
0.026171808446571995926
0.026289679061240758817
0.026403051715657092913
0.026508776716037976695
0.026604496195918484608
0.026689805038326939318
0.026763551786959851458
0.026825056412731446143
0.026874011671453035266
0.026910975362326474553
0.026937121266921947721
0.026954196762013115513
0.026963916641095844046
0.026968453054116815065
0.026969901219267861797
0.026969741632097379846
0.026969301757570982719
0.026967942569743701825
0.026965443346873573666
0.0269616813935042339
0.026954366982238280731
0.026937514612298915639
0.026898595025810764086
0.026850901050180758789
0.026804163274092743935
0.026756739810107208616
0.026711828894431896564
0.026667110212923290924
0.026625855501724741969
0.02658565214077982658
0.026549295706363201103
0.026513903131341692854
0.026481880398135388549
0.026450248970226210993
0.026421129348744132326
0.026391357637754766369
0.026363090217825416173
0.026333785591151154248
0.026306090800292138837
0.026277582896959882086
0.026250442141528877726
0.026221856334911423231
0.026194265946058954697
0.026165441311091997001
0.02613878123538140516
0.026111993264685239013
0.026088196650866798953
0.026063806169940313684
0.026041674475073148254
0.02601727113684201495
0.025994437941362573408
0.025968489627579555146
0.02594408593476205116
0.025916527249376070108
0.025890386240924205541
0.025861563697423019248
0.025834474626659158225
0.025805828671646199868
0.025779467898599906645
0.025751588689911616287
0.025725881613019856153
0.025697627112811607941
0.025671462309019718595
0.025642157494784920124
0.025615191305741101535
0.025585176904160782108
0.025558000726834669697
0.025528319283680163398
0.025501679984112492205
0.025472098449971027762
0.025445092625602037939
0.025414490608064783939
0.025386599284950742833
0.025355230994763559155
0.02532657652190822492
0.025294389494210499369
0.025265033238855268138
0.025232443498739397236
0.025203820326382554706
0.025172138616849727699
0.02514501834755228718
0.025114575567909552811
0.025088538920171248731
0.025059245597783948167
0.025033817828371839748
0.025004543294445898821
0.024978601413009574039
0.024947943268077692192
0.024920735331449093281
0.024888809052360148788
0.024860601329865977815
0.024828232894140895431
0.024799841278008903644
0.024767729643060808209
0.02474012426986693311
0.024708700606168733371
0.024682133671119928925
0.02465144495199170227
0.02462536908093132873
0.024594637997777717142
0.024567766746210771556
0.024535493859401475564
0.024507059414154871296
0.024473539906692268892
0.024444588529937277821
0.024410930354731366632
0.024381970414905782679
0.024348242413664403921
0.0243192856926997443
0.024285857501999377067
0.024257721348239474901
0.024225396286766683052
0.024198576498667120904
0.024167396685063166628