/*--------------------------------*- C++ -*----------------------------------*\
  =========                 |
  \\      /  F ield         | OpenFOAM: The Open Source CFD Toolbox
   \\    /   O peration     | Website:  https://openfoam.org
    \\  /    A nd           | Version:  12
     \\/     M anipulation  |
\*---------------------------------------------------------------------------*/
FoamFile
{
    format      ascii;
    class       volScalarField;
    location    "0.007";
    object      p;
}
// * * * * * * * * * * * * * * * * * * * * * * * * * * * * * * * * * * * * * //

dimensions      [1 -1 -2 0 0 0 0];

internalField   nonuniform List<scalar> 
75962
(
99682.151476403116249
99376.018634928928805
99307.223781331835198
99444.397056618036004
99381.917911370328511
99261.403540595711092
99181.295751595011097
99183.415539432666264
99220.84550519741606
99242.911985519589507
99233.944814249596675
99183.000207355682505
99206.047014982701512
99339.303190624414128
99422.831019642224419
99347.224957882252056
99184.262595849912032
99096.740781305168639
99141.036714191053761
99213.316892945542349
99211.723676511071972
99188.129071908479091
99244.272271868059761
99350.992295350442873
99410.578364363231231
99405.647956200584304
99367.152184426275198
99301.665963515348267
99238.7995779333869
99243.77443156739173
99318.51975311221031
99375.759558327554259
99360.767726247897372
99297.78262329766585
99247.00927182083251
99224.137716110548354
99222.813817868576734
99245.165767163183773
99276.407480835841852
99294.067104370929883
99303.088656190870097
99332.221014419003041
99380.550550580999698
99411.145542150959955
99409.414622675540159
99396.401273065144778
99389.956447295902763
99383.873298224541941
99369.993311980273575
99354.198963918504887
99346.991309513396118
99356.674395172623917
99377.330021975401905
99406.417274604435079
99435.105719908111496
99441.960620946701965
99417.225149011224858
99378.921945262234658
99351.493913761150907
99345.98582916619489
99355.759874355717329
99366.0245412208169
99361.87106290331576
99344.157260757230688
99325.402886748168385
99320.752198404123192
99340.369071839944809
99388.907413192500826
99449.109195180164534
99487.723882666046848
99480.120583383948542
99442.458857305289712
99415.65071952692233
99420.700960350295645
99445.516945089941146
99461.226952811295632
99452.176257518760394
99431.06380131651531
99416.510859265050385
99417.836679491025279
99426.470166905608494
99426.632002406695392
99410.776216524420306
99388.380404046765761
99380.827980316389585
99402.258055313621298
99446.177340136593557
99483.770546666011796
99488.881421342754038
99466.331235609701253
99445.971456257393584
99454.978786679770565
99498.827189772229758
99554.437709623904084
99589.737112557384535
99591.198135192636983
99574.654659701627679
99565.927314876986202
99577.801836279439158
99598.325004262209404
99606.900726211097208
99594.715796016331296
99568.800628372991923
99543.061820447357604
99525.621758259963826
99518.06729448272381
99520.159305743742152
99531.40584433847107
99551.650573607490514
99575.887711188217509
99597.621076152005116
99612.949819866844337
99621.664793472460588
99623.987503230891889
99619.38345236243913
99608.056666279691854
99593.416104224161245
99580.29424324426509
99572.116075937577989
99568.632146503907279
99569.453792703614454
99575.6217400568421
99590.811084746936103
99617.028720277623506
99648.997049337820499
99674.141768810441135
99679.48468837357359
99659.897413657177822
99624.432575744474889
99587.178954665389028
99557.774358360111364
99537.832046905736206
99522.869467375261593
99509.009747152565978
99495.464502984294086
99482.650090116279898
99470.650821191462455
99460.526906632949249
99453.212424951183493
99451.075137542342418
99454.455600063127349
99460.574549100463628
99464.914634518194362
99462.846152311176411
99452.858834723811015
99437.555649478119449
99423.368242353230016
99416.182320713021909
99418.054058746740338
99427.239393017429393
99439.550035022839438
99453.249482807936147
99467.509657660339144
99482.718245812575333
99491.637900559973787
99488.645219807614922
99469.768109693774022
99437.168481120519573
99401.338581546850037
99375.730885231896536
99370.289519443918834
99384.290965562991914
99408.051670460175956
99428.556133449659683
99440.242189539523679
99448.541057566792006
99464.596620872762287
99496.254406662235851
99540.696307556383545
99585.814809147646884
99617.225004677500692
99626.53239400802704
99616.182468661892926
99596.248560817170073
99577.318808964191703
99565.013851560870535
99559.180618445461732
99556.164404051829479
99552.381761717086192
99548.132985164556885
99545.835637198440963
99548.645868881460046
99557.436007835145574
99570.824399774719495
99585.452340162111796
99598.149479831088684
99608.115935212452314
99617.207792527362471
99751.411532918282319
99752.67815657745814
99757.769843771369779
99768.848709734156728
99784.486377393230214
99800.184886247632676
99810.868480520730373
99813.545768729498377
99808.717453602846945
99799.98133599718858
99792.066707155085169
99788.277599416309386
99789.106576510195737
99792.607126433824305
99796.126552357265609
99798.174302256491501
99799.191033613824402
99801.016076068990515
99805.221545437219902
99811.963746679932228
99820.215312383574201
99828.664900790477986
99836.553612348347087
99844.189161729271291
99852.775647667847807
99863.808197740101605
99878.2620973548037
99895.631874803948449
99913.326565760697122
99926.884178877589875
99931.181224410684081
99922.608369895257056
99900.938249083774281
99869.929432785938843
99836.173795616996358
99806.851248905615648
99787.143519171891967
99778.350111700594425
99777.851568546626368
99780.879779470298672
99782.826907367256354
99781.032841368039954
99775.242038245487493
99767.128169139279635
99758.918916458525928
99752.132477424296667
99746.815445380067104
99742.040864405455068
99736.940270277060336
99731.518330867067561
99726.837412235923694
99724.416828381741652
99725.277854617161211
99729.069604822332622
99733.913378672528779
99737.074258885913878
99736.209051797821303
99730.245845545141492
99719.546710506168893
99705.119256531019346
99687.837354851973942
99668.032773065569927
99645.91717896272894
99622.330408427136717
99599.132838277437259
99578.939425484073581
99564.444902319126413
99557.382039816409815
99557.655648317784653
99563.233448686820338
99570.734262054145802
99576.599334081620327
99578.455800620926311
99575.908764130988857
99570.371389254694805
99564.436836483189836
99560.814443652765476
99561.406374173791846
99566.633302823654958
99575.375503471557749
99585.348673320855596
99593.804566796141444
99598.481117985851597
99598.155047079751967
99593.168953362546745
99585.520550893692416
99578.468426644598367
99575.515304131200537
99579.111143293092027
99589.609749910057872
99605.009810982868657
99621.673450926857186
99635.719290191394975
99644.459389245399507
99647.173437256074976
99645.013603819272248
99640.09376611332118
99634.372845064281137
99628.878638700160081
99623.801755915323156
99619.201654771881294
99615.965504065155983
99616.065264492091956
99621.945659798977431
99635.262513580484665
99655.86913910714793
99681.372668713258463
99707.647410861158278
99729.99556892029068
99744.627789675025269
99749.687790928219329
99745.601761410216568
99734.81423763956991
99721.071318321555736
99708.359863769670483
99699.889222894140403
99697.527267384808511
99701.544980192920775
99710.656595950204064
99722.310534153933986
99733.273447266576113
99740.481399519107072
99741.79660381663416
99736.521320458574337
99725.410527191954316
99710.247059758810792
99693.118188224776532
99675.684992148060701
99658.745513261310407
99642.328969749301905
99626.299198054490262
99610.991800921532558
99597.554774285366875
99587.735067260990036
99583.240941899261088
99584.99427233710594
99592.662554357171757
99604.499738703845651
99617.844976816442795
99630.000354342148057
99639.109927783661988
99644.647540502992342
99647.383026496521779
99648.876710695592919
99650.851301763555966
99654.545912729037809
99660.426315232762136
99668.267098848649766
99677.335699066155939
99686.925069055811036
99696.508629951640614
99705.814831152369152
99714.597751739216619
99722.487982225269661
99729.089792187398416
99734.202947865342139
99737.896108870554599
99740.586967172246659
99742.72418973724416
99744.419948922164622
99745.242821592852124
99744.145219639729476
99739.539606803053175
99729.880382456176449
99714.466092146962183
99694.074834981423919
99670.973035401475499
99648.599844596741605
99630.723021035490092
99620.555392788126483
99619.715714418940479
99627.63099108505412
99641.659267589420779
99657.986019569943892
99672.739873306025402
99683.255766236892669
99688.764853931133985
99690.236439817410428
99689.777927214367082
99689.637463140723412
99691.372784884588327
99695.239247433579294
99700.271553768790909
99704.845658982900204
99707.304049662139732
99706.504280304186977
99702.05461021818337
99694.19156752168783
99683.601263022210333
99671.104966501996387
99657.387589599791681
99642.911534221711918
99628.075352133935667
99613.374527230291278
99599.508242389070801
99587.407724182223319
99578.202659756818321
99572.987485501624178
99572.403369415696943
99576.1938972571661
99583.210042133971001
99591.563088626367971
99598.992509662071825
99603.649179052838008
99604.651353039473179
99602.13846303189348
99597.032491521938937
99590.797936890448909
99584.956720382004278
99580.703667910929653
99578.712383486039471
99579.269527452401235
99582.446912954037543
99588.114631807315163
99596.070492145634489
99606.069553198642097
99617.514258060939028
99629.48357534573006
99640.951116321462905
99650.961817448973306
99658.913804948431789
99664.707320909161353
99668.803715263944468
99672.132545502929133
99675.819030797909363
99680.714693781308597
99687.07333686252241
99694.650632964476245
99702.846074907938601
99710.918627567283693
99718.153375969384797
99724.120241892931517
99728.879760783500387
99732.961388025505585
99737.171409005968599
99742.332635805971222
99749.058524402906187
99757.522139709937619
99767.377047592541203
99777.91148541115399
99788.199827301301411
99797.332386338472134
99804.599292764571146
99809.591074640920851
99812.16392662000726
99812.387871198996436
99810.485197806163342
99806.831371565203881
99801.980736791563686
99796.702564316889038
99791.917576016436215
99788.659984514422831
99787.996582935273182
99790.800095659928047
99286.347326342991437
99378.017778642475605
99523.161550500677549
99768.994505718917935
99544.917095573982806
99146.476312632876216
99006.66018583253026
99114.996692300279392
99211.04378200120118
99233.268570838088635
99243.202353379747365
99252.502620099650812
99305.347147489083
99418.890858715283684
99473.14143056939065
99366.01835854757519
99195.124635316140484
99103.087003063090378
99145.268051294377074
99234.997811321372865
99252.232715625228593
99228.952279091929086
99273.285826012783218
99374.211896533626714
99429.894735674417461
99412.00139347903314
99369.989401900413213
99319.600003840445424
99265.579731167701539
99253.90009478967113
99315.129782963384059
99389.627376795557211
99391.39877488023194
99314.807092416915111
99236.047225541537046
99198.762930509707076
99198.623210616002325
99233.193791220299318
99282.932550388839445
99310.141111871940666
99303.974273744111997
99305.352273506083293
99342.772381060451153
99387.666942348500015
99408.329885926592397
99413.538280258479062
99419.402222160046222
99416.09551143279532
99395.002026836125879
99376.538780828414019
99383.95854104407772
99407.562945959594799
99421.813735024610651
99426.926199396431912
99432.365398310212186
99431.999093374470249
99415.315755518735386
99382.671788363280939
99356.398894832629594
99349.807568902891944
99356.952438145905035
99365.843030458228895
99363.744159219844732
99349.943145070836181
99335.117005606574821
99333.195779550631414
99354.07059705624124
99395.863233755386318
99443.457619713095482
99468.923673273879103
99460.715218123805244
99435.958853725576773
99417.398899315579911
99416.415306170019903
99424.652115777425934
99432.105325290889596
99432.269973680871772
99424.94482519957819
99415.360219560636324
99410.419426161795855
99413.486378919886192
99415.219757953949738
99406.034126534563256
99390.271314479177818
99382.937775324346148
99396.236510353031917
99427.763574269949459
99461.986413412072579
99478.185220933708479
99477.304152049749973
99472.133640469473903
99483.605848321050871
99522.963654795763432
99573.547481619840255
99605.41453166717838
99603.481665172221255
99581.269564392743632
99564.994876400931389
99568.185104310512543
99580.809414569332148
99585.685653847147478
99575.241150315734558
99555.012992515185033
99535.489377886624425
99521.959007553392439
99516.594805410975823
99521.922452283994062
99540.33362423775543
99569.768748564805719
99602.062362384953303
99625.6635303197545
99634.162491250172025
99631.085025323001901
99625.030686738769873
99622.355867218808271
99622.082605745759793
99619.329703745766892
99611.517042226463673
99601.842197480626055
99593.702253767332877
99588.457307230390143
99587.162323260956327
99592.828721237718128
99609.280315008640173
99635.092996193416184
99659.520247517197276
99666.410981117936899
99647.38682637916645
99610.364102724415716
99572.405392156972084
99546.608858753679669
99533.882646578771528
99526.405144715317874
99516.633699662284926
99503.51417376381869
99491.284500627618399
99482.745393972261809
99478.194631788617698
99474.759931104650605
99469.629083793057362
99462.634729283978231
99455.611513455834938
99449.801986846563523
99444.85095899796579
99439.934911449628999
99435.425497040356277
99433.470693054798176
99436.016344907024177
99443.014311327802716
99451.008907832743716
99456.935031016328139
99461.592898310438613
99467.276544752618065
99474.281544574754662
99477.339254049365991
99469.634304595063441
99448.687482349516358
99418.158331734652165
99387.476700211496791
99367.690702693827916
99364.861229166956036
99375.706974702043226
99391.208443942960002
99402.357743863030919
99407.357045445343829
99412.694018221867736
99428.049145086217322
99459.389719214799698
99504.691578662139364
99551.379702801103122
99587.326381530714571
99605.167508850354352
99606.924979294984951
99600.825512695664656
99594.629470451851375
99590.45879189997504
99585.32753971531929
99575.548986969792168
99560.829801563260844
99545.784346386892139
99536.92242488010379
99538.224926601818879
99549.242045706778299
99565.891865398545633
99583.469525720560341
99599.271401027974207
99613.402304744886351
99626.480896040782682
99639.473602873869822
99780.800243777048308
99785.140635223098798
99786.065683958004229
99787.928538750275038
99793.788919853628613
99803.524931059248047
99813.800760785728926
99819.910553547771997
99818.599110625436879
99809.896759660157841
99797.178255586593878
99785.728716243698727
99780.142601448169444
99782.056307568273041
99789.760945649642963
99799.669174643961014
99808.518647445904207
99814.817945764356409
99819.095634734709165
99823.070707711871364
99828.256820437178249
99835.334994713426568
99844.053972911002347
99853.716450499036
99863.865501868436695
99874.567784152168315
99886.408564682191354
99900.086377665633336
99915.361415794148343
99930.118197565025184
99940.425353247585008
99941.84684534407279
99931.475924203230534
99909.681049293460092
99880.562608228501631
99850.331769196753157
99825.076366769746528
99808.635848158461158
99801.387376209167996
99800.444129208961385
99801.25343906407943
99799.658770727328374
99793.748763898518519
99784.291398199260584
99773.854328829766018
99765.148496465350036
99759.662073601401062
99757.01857290265616
99755.358289825948304
99752.653106795056374
99748.055664887157036
99742.556436635481077
99738.358695839517168
99737.229785707429983
99739.224195644681458
99742.400085689063417
99743.775290770689026
99740.808799207079574
99732.453683903993806
99719.400573555263691
99703.241034383594524
99685.346638451053877
99666.240540823608171
99645.778947280574357
99624.081589904686552
99602.380034159999923
99583.033470886497525
99568.915482188778697
99562.435540969658177
99564.386083319288446
99573.466826302130357
99586.349668545153691
99598.573961724410765
99606.193166642566212
99607.137594888481544
99601.728199901801418
99592.372364865252166
99582.457467616564827
99575.190630741417408
99572.593823457078543
99575.092808666086057
99581.525934709788999
99589.632160976689192
99596.765964618563885
99600.715447743685218
99600.505715914419852
99596.765729204387753
99591.719961272698129
99588.404531580934417
99589.434461090975674
99595.92942919905181
99606.954597383941291
99619.954967890836997
99631.822126697094063
99640.109114268838312
99643.760887923272094
99643.161073395909625
99639.462409375366406
99633.929587215796346
99627.536653129645856
99621.010718645062298
99615.240343001671135
99611.678877085796557
99612.302883423282765
99619.062126841163263
99632.880894054076634
99652.951094344491139
99676.748636604766943
99700.587077765012509
99720.6314813458157
99733.729453873180319
99738.337907306675334
99734.844298097785213
99725.336794282571645
99712.995705671623
99701.224894089842564
99692.880614607114694
99689.724303054637858
99692.061749305328703
99698.70278608778608
99707.333816973899957
99715.122321130140335
99719.550961604996701
99719.133951587049523
99713.71827592952468
99704.214124774836819
99692.005030104395701
99678.390335541465902
99664.216447698156117
99649.706310868947185
99634.69582363133668
99619.097734990093159
99603.446925996700884
99589.192962237139
99578.285558684845455
99572.36028118552349
99571.963470555187087
99576.269709361338755
99583.326908489732887
99590.786749869424966
99596.743130780479987
99600.373432946755202
99602.136323181024636
99603.489395011041779
99606.265222495771013
99611.908048220124329
99621.053544409413007
99633.329271888898802
99647.513785876260954
99661.950553360686172
99675.218512529769214
99686.534238380962051
99695.771665048247087
99703.253707031399244
99709.454329832995427
99714.913629111513728
99720.048610902580549
99725.192240665492136
99730.591993104491848
99736.244961131218588
99741.752970336761791
99746.063883008479024
99747.407332560644136
99743.783418070335756
99733.57351865406963
99716.345162223486113
99693.329090140672633
99667.492900964032742
99643.025300779481768
99624.430375787589583
99615.165058333441266
99616.595396222110139
99627.548644868729752
99644.697132549685193
99663.572995374866878
99680.035620701455628
99691.499184477637755
99697.394470510014798
99699.054214163275901
99698.977755773928948
99699.684306007242412
99702.664315021102084
99707.898498525639297
99713.996365815604804
99718.865652083899477
99720.464454693923471
99717.521642929714289
99709.868624907845515
99698.269578625448048
99683.990921872769832
99668.25516800841433
99651.880421982874395
99635.330102662235731
99618.838564280478749
99602.695967174615362
99587.588452089374186
99574.676029311565799
99565.461890421909629
99561.269247826116043
99562.662692658050219
99569.046887867531041
99578.652500732947374
99588.979172979321447
99597.486604190300568
99602.090980850960477
99601.875340225946275
99597.401069704152178
99590.288851117293234
99582.502468105143635
99575.92648564040428
99571.869510584743693
99571.036083402737859
99573.428390400134958
99578.735187031197711
99586.526952188025462
99596.334484599545249
99607.629103043844225
99619.676311637915205
99631.548397923397715
99642.241011313773924
99650.908314575688564
99657.182515969165252
99661.180391486574081
99663.608452375046909
99665.453398222161923
99667.803488315985305
99671.484619516922976
99676.652970602357527
99682.900383335712831
99689.471094780426938
99695.574067712397664
99700.6943845324422
99704.703257852655952
99707.960650486027589
99711.216011166921817
99715.335591539245797
99721.087885680943145
99728.928754178312374
99738.83635732694529
99750.266634729661746
99762.280919447934139
99773.74647197437298
99783.629779545721249
99791.216993893642211
99796.216905404697172
99798.696140880725579
99798.926489400386345
99797.267411048771464
99794.128026233098353
99790.054799239165732
99785.757385698874714
99782.129500457565882
99780.118386619724333
99780.684778513401398
99784.62101795146009
99523.051115353780915
99493.95225416617177
99287.856265982743935
99273.006553366765729
99323.078680669161258
99231.5048942607973
99176.101570099257515
99280.375442010627012
99380.633315483501065
99343.066256938211154
99270.827006570820231
99276.226343524773256
99342.572142647288274
99438.428838452411583
99484.589803936789394
99400.432499521004502
99245.505011286673835
99155.442537792332587
99195.116225894278614
99288.016906289791223
99314.354589544556802
99273.561163828824647
99276.414382341972669
99348.763392420281889
99398.739035200487706
99391.78957007585268
99373.421619604137959
99354.060243638712564
99312.616667154972674
99281.851386095106136
99311.767956329989829
99375.092386140226154
99379.728580586932367
99312.142956897208933
99242.230884764881921
99203.646942915132968
99190.294945782690775
99215.858120131364558
99277.917272658422007
99322.521605189947877
99317.497554553832742
99306.190858137080795
99335.598858511220897
99382.066365986655001
99405.356606089451816
99411.772231716837268
99420.492192780278856
99421.805122700927313
99408.392117911469541
99407.307077210396528
99435.897601844466408
99465.001300358519075
99462.426277694190503
99435.143703337584157
99413.420995671491255
99405.364303414506139
99394.780187242722604
99372.55887474877818
99350.827213822558406
99349.121803251415258
99366.564010818197858
99386.24402021287824
99395.605595343353343
99392.141964870796073
99382.267367701831972
99376.858360926024034
99381.345461214514216
99393.646096294585732
99408.870130820592749
99418.446005727222655
99421.917427316657268
99424.961254709327477
99424.219502333115088
99419.387789121086826
99414.488091266233823
99415.531099108236958
99419.372685556401848
99413.333426569704898
99398.463985376263736
99387.279537418158725
99389.398408551191096
99398.45135793989175
99400.356771801933064
99390.349664164314163
99378.036410084241652
99379.894604440880357
99403.42010221570672
99443.938632497112849
99484.335851426643785
99510.013648094201926
99517.59120187634835
99523.916772176715313
99544.163748677965486
99576.452478861596319
99601.048177443837631
99602.391108547148178
99584.941898958742968
99567.946614438580582
99560.763258559352835
99560.456310890745954
99559.513639943746966
99553.959908068281948
99545.991085997025948
99539.179954328981694
99535.328822891839081
99537.528144748692284
99549.259376501693623
99570.967369766411139
99599.549685494435835
99625.631914008888998
99641.160826460501994
99642.158729025977664
99633.810859229284688
99626.864631954798824
99629.109320600342471
99637.700518731609918
99643.316652491062996
99639.530586589578888
99629.260686243607779
99619.170497248836909
99611.006164827645989
99604.74322947114706
99601.853537133501959
99605.707150995105621
99618.133977669276646
99633.125412255598349
99636.686217628812301
99620.752600767125841
99590.539709816788672
99560.401051714405185
99541.015633485891158
99532.488706143019954
99527.504740756674437
99520.057444075151579
99511.503071878192713
99507.186904637463158
99509.14869183592964
99510.845782501011854
99505.504832709440961
99489.272358449976309
99466.171401535204495
99445.054331006846041
99432.586078023785376
99429.915613701115944
99433.873228426426067
99441.004440651027835
99449.474708214605926
99459.856736382149393
99470.990060917203664
99478.292458550684387
99480.040021268752753
99476.32374377202359
99470.031816227347008
99462.096507805588772
99453.386357904644683
99440.155488830932882
99422.178962125632097
99403.668921956603299
99388.532548483723076
99380.133410511276452
99379.228300521834171
99382.760256242807372
99385.165191809064709
99383.481754817490582
99378.879034364843392
99378.512172568633105
99390.181818202370778
99417.112105707114097
99457.350901024867198
99500.884373142864206
99538.330526153775281
99565.075970517485985
99581.749032677573268
99592.809163576923311
99601.185450799224782
99605.331874448340386
99600.692879483351135
99585.107343975905678
99561.621672815628699
99538.270259202079615
99524.050252132365131
99523.762489943255787
99536.281676069818786
99556.577297647934756
99579.867451521815383
99603.040070428862236
99624.27676874435565
99642.412664169329219
99656.011472126265289
99816.517665389983449
99822.405775179926422
99821.33791650486819
99817.148821177019272
99814.091885585643467
99814.499796928212163
99817.458403031603666
99819.462846805210575
99816.813996954573668
99808.063185315011651
99795.223007931766915
99782.975966421610792
99776.495818492068793
99778.840076008898905
99789.447773772233631
99804.650736542171217
99819.776716901047621
99831.426423891229206
99838.615823211395764
99842.766368152035284
99846.343711773472023
99851.44547119026538
99859.070620583734126
99868.926342085120268
99880.05064642833895
99891.650758704723557
99903.468140807308373
99915.652526356934686
99927.986216989535023
99938.969891442815424
99945.674488049262436
99944.899781238855212
99934.775322377303382
99916.019940268000937
99892.066280828352319
99867.72585479162808
99847.328434593058773
99833.275398997226148
99825.479215482468135
99821.66385898993758
99818.412165675530559
99812.859935745131224
99804.143429652191116
99793.664840322977398
99784.126912467181683
99778.102241642540321
99776.497711269563297
99777.91818905940454
99779.291984132534708
99777.580810651023057
99771.526342606797698
99762.454941559335566
99753.459083382578683
99747.411823225542321
99745.142093025962822
99744.988793639349751
99743.856220311470679
99738.838784981591743
99728.632402372619254
99713.930282340734266
99696.658483677820186
99678.669172936264658
99660.89914881833829
99643.332014861836797
99625.708968322927831
99608.378806867694948
99592.859809949499322
99581.614896702405531
99577.201017521379981
99581.040323377848836
99592.492861265447573
99608.71119604157866
99625.244022948812926
99637.445126839156728
99641.965978869673563
99637.869097026021336
99626.813109869355685
99612.294120621561888
99598.371487940530642
99588.445874597295187
99584.469565560284536
99586.534938352386234
99592.946450514282333
99600.904381165819359
99607.54184948526381
99610.828145645122277
99610.416800396458711
99607.665145456543542
99604.825897950911894
99604.234883207958774
99607.302819822449237
99613.778946796242963
99622.091242266862537
99630.182938375233789
99636.320428181134048
99639.469363621959928
99639.483119956756127
99636.829591194036766
99632.200016285918537
99626.351094901459874
99620.343963529332541
99615.727064446269651
99614.238981052883901
99617.320683472673409
99625.628518440731568
99638.830375305507914
99655.503840029821731
99673.5212990870059
99690.534060032761772
99704.46559753701149
99713.776856603348278
99717.597172485999181
99715.963544956015539
99709.873387448911672
99701.208307137771044
99692.310215477991733
99685.389546558231814
99682.043253553216346
99682.781776129122591
99686.816858941529063
99692.285281193602714
99696.929944040224655
99698.884060519849299
99697.235940533908433
99692.174779720560764
99684.544817603615229
99675.255185025220271
99664.852767104079248
99653.438127465982689
99640.863094049243955
99627.05059114623873
99612.289713893871522
99597.417427080159541
99583.801705761507037
99573.054190396112972
99566.398150916793384
99564.026692376850406
99564.87456644375925
99567.066603730301722
99568.67341185240366
99568.507173089572461
99566.629818544461159
99564.355107844225131
99563.687758748535998
99566.673224511032458
99574.654672846285393
99587.84112539421767
99605.215394786297111
99624.823459720428218
99644.35154316452099
99661.720729178792681
99675.637420990417013
99685.843659531863523
99693.029769140091958
99698.329733693375601
99702.908669350596028
99707.693935805727961
99713.272053565553506
99719.950212540075881
99727.589709873587708
99735.406241267555743
99741.870295561602688
99744.819048324512551
99742.15123029226379
99732.373894255797495
99715.26357056631241
99692.39242036754149
99667.182586125883972
99644.110263534355909
99627.639580747068976
99620.951754215362598
99624.996441084847902
99638.172872886309051
99656.812201055072364
99676.296698500154889
99692.662281457756762
99703.691562460197019
99709.33852549760195
99711.366612806959893
99712.380880434051505
99714.630009753294871
99719.018905827077106
99724.854229832431884
99730.228553888911847
99732.713110348646296
99730.380593973794021
99722.467615388610284
99709.519426345941611
99693.008232977226726
99674.675052497492288
99655.972771915490739
99637.77444489854679
99620.329166715600877
99603.645013070752611
99587.89436753866903
99573.805906761888764
99562.692806746606948
99556.110889017189038
99555.223222280372283
99560.245517516334075
99570.082018835280905
99582.363317355629988
99594.094861114484956
99602.525321462991997
99605.831481666551554
99603.482319114511483
99596.503022379911272
99586.975424262607703
99577.410854251109413
99569.96614587258955
99565.979606074513867
99565.96239640188287
99569.725940477306722
99576.612251427402953
99585.873396033741301
99596.749613887062878
99608.507538090445451
99620.444534860449494
99631.771448541388963
99641.626202794243
99649.396018288549385
99654.786340915728942
99658.032225742179435
99659.788812396494905
99661.015592488911352
99662.632971784099936
99665.260578199246083
99668.988216537982225
99673.365604443417396
99677.706877151678782
99681.403876876516733
99684.143700315296883
99686.06768982988433
99687.772690286074067
99690.13125734719506
99693.984475474790088
99699.84344717078784
99707.83468069198716
99717.7512963112531
99729.001832626308897
99740.704385280347196
99751.873169181446428
99761.635441810372868
99769.443966582141002
99775.083519089661422
99778.674054680144764
99780.465180648068781
99780.698403129019425
99779.601237981260056
99777.545180485758465
99775.108830747936736
99773.076914406832657
99772.355583417709568
99773.863568145621684
99778.448472964621033
99786.610877053593867
99673.452147503456217
99398.276214553741738
99385.04700824257452
99444.815920234876103
99569.299943449936109
99566.038298220286379
99473.019831407611491
99464.566806523507694