/*--------------------------------*- C++ -*----------------------------------*\
  =========                 |
  \\      /  F ield         | OpenFOAM: The Open Source CFD Toolbox
   \\    /   O peration     | Website:  https://openfoam.org
    \\  /    A nd           | Version:  12
     \\/     M anipulation  |
\*---------------------------------------------------------------------------*/
FoamFile
{
    format      ascii;
    class       volScalarField;
    location    "0.007";
    object      p_0;
}
// * * * * * * * * * * * * * * * * * * * * * * * * * * * * * * * * * * * * * //

dimensions      [1 -1 -2 0 0 0 0];

internalField   nonuniform List<scalar> 
75962
(
99682.558261490936275
99371.796714345618966
99311.884900311182719
99447.153299426136073
99379.23483022779692
99258.875829491444165
99180.310044078185456
99184.672364833299071
99222.171322528767632
99243.691394119421602
99233.457271785577177
99182.744740383917815
99209.591351102644694
99344.226527648439514
99424.123880390776321
99344.164702136738924
99181.029021032809396
99097.350458269560477
99144.548485157327377
99215.747627371689305
99212.117829839975457
99189.692565512494184
99248.361962407652754
99354.941244204324903
99412.191480298060924
99405.33410057517176
99365.595845418574754
99299.442657623250852
99237.735998068834306
99245.205173194059171
99320.909610970164067
99376.4456232846278
99359.284180469330749
99295.629615484096576
99245.496724669908872
99223.428861726264586
99222.809466772945598
99245.786759153212188
99276.897040893440135
99294.071652349201031
99303.306024636054644
99333.282376368355472
99381.778604999606614
99411.610635252160137
99409.262761871766998
99396.41516710970609
99390.235776793793775
99384.077250064452528
99369.945291064592311
99354.162312610002118
99347.22369024695945
99357.379485766490689
99378.381247484154301
99407.660830521635944
99435.897477545950096
99441.69325674479478
99416.036967441978049
99377.634669793536887
99350.742289058165625
99345.880185309608351
99355.918165353708901
99365.895765528504853
99361.187240344646852
99343.247024605501792
99324.845666011795402
99320.995481862337328
99341.695665569495759
99391.069904785152175
99451.175540573924081
99488.477476564177778
99479.344704917617491
99441.269411155750277
99415.21063639431668
99421.269857274135575
99446.192579063470475
99461.191319088393357
99451.4692732552503
99430.247904871706851
99416.068677634335472
99417.711023860916612
99426.178089966095285
99425.773302542773308
99409.434001808884204
99387.155707621524925
99380.437741693298449
99402.835400731288246
99447.028175096667837
99483.980429619230563
99488.027117499092128
99465.086275592475431
99445.416285947343567
99455.67928311083233
99500.441003352403641
99555.881412908202037
99590.091124520738958
99590.505407425225712
99573.711090155236889
99565.491408217101707
99577.909023295113002
99598.35811338131316
99606.301185293617891
99593.459564889053581
99567.312678619418875
99541.795425798991346
99524.769319861647091
99517.594498496866436
99520.092442628927529
99531.765223794995109
99552.304907851692406
99576.606377582560526
99598.181758966456982
99613.25361942674499
99621.712768024633988
99623.792849985446082
99618.954882549543981
99607.480532039320678
99592.84637603838928
99579.918875788163859
99571.97581219287531
99568.691018101511872
99569.728157748118974
99576.220104217078188
99591.826617372818873
99618.414080597183784
99650.417511639403529
99675.080446252730326
99679.585786178620765
99659.245407801150577
99623.456413307023467
99586.357401170156663
99557.333332998852711
99537.682072028794209
99522.816471751822974
99508.938066173650441
99495.371032379072858
99482.582498444549856
99470.685387642544811
99460.722800754665514
99453.642824469076004
99451.769245584539021
99455.340539829427144
99461.469489625043934
99465.654840825634892
99463.337150200342876
99453.127212510284153
99437.737490162064205
99423.689504099398619
99416.788424608574132
99418.941911637724843
99428.309520676237298
99440.695127137762029
99454.461788834130857
99468.771003122019465
99483.880717410953366
99492.388877605117159
99488.786902799969539
99469.258306595642352
99436.273422193960869
99400.563484102938673
99375.547179584405967
99370.873301313564298
99385.426639569472172
99409.297282870029449
99429.538733981666155
99440.959941611479735
99449.308156972183497
99465.777772769724834
99497.949726269536768
99542.547276113487897
99587.278644565056311
99617.828635067242431
99626.172997304951423
99615.135299494257197
99594.952671644990915
99576.119977409922285
99564.035898334055673
99558.354141565170721
99555.361304915029905
99551.537793151379446
99547.288038582715672
99545.090330091246869
99548.07055637690064
99557.012262276737601
99570.472044673719211
99585.070007425645599
99597.697640159341972
99607.661428595223697
99616.869702140029403
99750.640773567341967
99752.012118676415412
99757.342617402944597
99768.658609729143791
99784.376319181261351
99799.924944953992963
99810.277979345351923
99812.583097159629688
99807.49726973536599
99798.712665626168018
99790.943901901424397
99787.388976553658722
99788.415416103904136
99792.00093060384097
99795.505116511063534
99797.509991868442739
99798.535768834553892
99800.448700986162294
99804.780662093151477
99811.628300629177829
99819.934852018734091
99828.395437355939066
99836.290989244283992
99843.973689795457176
99852.674756931810407
99863.881494683650089
99878.518354409447056
99895.99881207839644
99913.645272663576179
99926.944878848415101
99930.799955009832047
99921.717649918762618
99899.632004058265011
99868.441248098475626
99834.8034761564777
99805.856970100503531
99786.648921303931274
99778.305624052358326
99778.077409402554622
99781.159794608640368
99783.00002514164953
99781.037274189264281
99775.116524684475735
99766.968483774297056
99758.817716915233177
99752.129835032988922
99746.89191113616107
99742.151022645499324
99737.056208225170849
99731.652723868537578
99727.036514852021355
99724.726084772977629
99725.703463508310961
99729.554321730975062
99734.346291553723859
99737.335093236062676
99736.21634948461724
99729.983130112363142
99719.041747915209271
99704.406117827631533
99686.928952407790348
99666.932583553178119
99644.652616337538348
99620.975118939983076
99597.80879470918444
99577.795686075274716
99563.608242654387141
99556.906264632110833
99557.495687775299302
99563.255199452411034
99570.760472970549017
99576.476926918083336
99578.106251178003731
99575.345379514546948
99569.684331647673389
99563.754845658535487
99560.254765556121129
99561.036234285551473
99566.447277834013221
99575.30058869192726
99585.266489002679009
99593.593671464463114
99598.051196940185037
99597.479199433262693
99592.300181998696644
99584.588126152972109
99577.640037102173665
99574.94144779004273
99578.868377594073536
99589.67097630398348
99605.253762930078665
99621.930127075189375
99635.838906836506794
99644.363081305258675
99646.871105944766896
99644.579013594062417
99639.617697033274453
99633.919747815918527
99628.471290449844673
99623.443611324531958
99618.91592899778334
99615.823371402264456
99616.178339924008469
99622.419973413125263
99636.1415507497004
99657.095452937996015
99682.784977120973053
99709.020004351797979
99731.106467846140731
99745.328974497781019
99749.938147420834866
99745.47035799639707
99734.457560976326931
99720.684393043833552
99708.122321887974977
99699.923955588325043
99697.879986320942407
99702.183295455994084
99711.47981777714449
99723.174888017689227
99734.026002034122939
99740.995625627678237
99742.002206653967733
99736.415397343211225
99725.04970828651858
99709.717166373840882
99692.500395239447244
99675.030150716484059
99658.072151356449467
99641.644680111101479
99625.629504742406425
99610.396733409812441
99597.122771715177805
99587.554450415671454
99583.363905369973509
99585.410276416849229
99593.287760964158224
99605.197386906002066
99618.469429401404341
99630.444484764288063
99639.336668659860152
99644.688011975755217
99647.314362818724476
99648.788305993570248
99650.813740159836016
99654.592143405796378
99660.552491130074486
99668.449891914526233
99677.548390845797257
99687.147449318072177
99696.731299722072436
99706.033347159187542
99714.80308115441585
99722.667018891806947
99729.234105379204266
99734.313824414130067
99737.990722821210511
99740.688101424690103
99742.842056170178694
99744.543090532592032
99745.331831699833856
99744.13189293553296
99739.342831734480569
99729.442217574702227
99713.791401384281926
99693.244360492841224
99670.13862619867723
99647.954744594782824
99630.45517327520065
99620.800832509688917
99620.507945375909912
99628.887965601898031
99643.211542390956311
99659.630934990753303
99674.2986710271216
99684.625327408590238
99689.931899505027104
99691.264144580738503
99690.765980652955477
99690.675139470913564
99692.503711819605087
99696.444787612577784
99701.48495632284903
99705.982805020234082
99708.292532985011349
99707.301573318734881
99702.649079004666419
99694.598870109330164
99683.851850183287752
99671.227921672558296
99657.40042061508575
99642.820897449069889
99627.888176327905967
99613.115616877941648
99599.21837230939127
99587.149935764042311
99578.056439772844897
99573.022040383817512
99572.651045214704936
99576.634451986305066
99583.759065794409253
99592.101897192696924
99599.407645160288666
99603.867774437487242
99604.655951691252994
99601.953060791493044
99596.721589909371687
99590.444932952406816
99584.633493888031808
99580.458981646967004
99578.563097091435338
99579.221297463431256
99582.495182358732563
99588.25366227584891
99596.291205799177988
99606.355946501571452
99617.831873079048819
99629.788111430694698
99641.192225453982246
99651.097397792109405
99658.925841806994868
99664.61026732918981
99668.637009276353638
99671.950080708935275
99675.671277687186375
99680.632706342832535
99687.065150001566508
99694.701076474200818
99702.920514248646214
99710.976088197552599
99718.163803177143564
99724.078482973694918
99728.802795892130234
99732.881679267899017
99737.127948252484202
99742.358054185009678
99749.16589305033267
99757.700567142033833
99767.600592633520137
99778.146609361239825
99788.409974144771695
99797.483915730001172
99804.665680933612748
99809.555227777702385
99812.018789820926031
99812.13741567832767
99810.144489918195177
99806.427602415875299
99801.556884176738095
99796.319210930669215
99791.643700361019
99788.56350480223773
99788.133530101797078
99791.207133995674667
99284.802327614786918
99382.439314289658796
99532.994792162455269
99770.930780804250389
99534.007144767485443
99137.109801471058745
99006.879084595973836
99119.375915781754884
99213.721486676673521
99235.229235389095265
99245.505100431721075
99255.528491691919044
99310.106961843644967
99423.625973814821918
99473.733932779403403
99362.631955803197343
99192.132739831198705
99103.640572848729789
99148.945294602657668
99238.091965243424056
99253.208412001549732
99230.487730930486578
99277.070717570546549
99377.960987395941629
99431.136178560976987
99411.425698749677395
99368.931382134818705
99318.145424312519026
99264.59091936875484
99254.863225740002235
99317.625592934113229
99391.059587028299575
99389.956922194294748
99311.90338766334753
99233.912250862937071
99197.989430988251115
99199.014300853901659
99234.389556112902937
99283.941381340307998
99310.068883977975929
99303.455853234510869
99305.789768730290234
99344.191590222369996
99388.911759936978342
99408.933077072753804
99414.013437308836728
99419.785370192359551
99415.942925496550743
99394.514451515497058
99376.554573931949562
99384.81796421398758
99408.400719981451402
99422.253960358531913
99427.16248122608522
99432.46854014651035
99431.601172513575875
99414.319455019562156
99381.474938961138832
99355.603385180671467
99349.494213231620961
99356.894452687192825
99365.6356446830614
99363.231125631122268
99349.330362889828393
99334.821631502403761
99333.592889858759008
99355.338220917648869
99397.56409536593128
99444.826160857861396
99469.160521954996511
99459.940950637144851
99434.975807466747938
99416.798513164452743
99416.338062265160261
99424.721316940936958
99432.055892821139423
99432.009568066321663
99424.491190108165029
99414.821127375093056
99409.969587316329125
99413.038374455936719
99414.481386453859159
99404.944202401384246
99389.193428362646955
99382.352973994275089
99396.351360843385919
99428.231256290906458
99462.22324541278067
99477.867334065769683
99476.767228287164471
99471.924347703316016
99484.287796727032401
99524.364661386658554
99574.729636688280152
99605.493226070015226
99602.468201337076607
99579.933941680646967
99564.152337571038515
99567.897511711562402
99580.523413334580255
99584.942188327739132
99574.035505429827026
99553.655531945303665
99534.311702994164079
99521.117039523538551
99516.161732230146299
99522.019554122118279
99540.990462064262829
99570.751079742141883
99602.963600450471858
99626.099464494458516
99634.045539958577137
99630.673370727934525
99624.656314521183958
99622.139692999844556
99621.914038576142048
99619.04494495781546
99611.14156181596627
99601.47668935659749
99593.439660666830605
99588.367314278832055
99587.324884710498736
99593.369096776892547
99610.29166832890769
99636.357979211592465
99660.490325952821877
99666.604261520275031
99646.770874993555481
99609.404889599245507
99571.699279792112065
99546.426795124905766
99534.064029025219497
99526.611640048169647
99516.699908517868607
99503.499109137628693
99491.369905616738833
99483.041638122303993
99478.665407240419881
99475.281612156744814
99470.11060736059153
99463.085683954224805
99456.081307483182172
99450.317517863033572
99445.403489832649939
99440.507790050833137
99436.047979886308894
99434.216856529441429
99436.895006580947665
99443.931071862214594
99451.862627800073824
99457.676257000435726
99462.339312190844794
99468.074336714620586
99475.056404956791084
99477.786431347267353
99469.573270059758215
99448.136880378166097
99417.361348936974537
99386.875140361284139
99367.618385391615448
99365.38236611240427
99376.577695773405139
99392.080441378391697
99403.005967247459921
99407.8809902377252
99413.40926888116519
99429.257713949744357
99461.142720247429679
99506.656379578897031
99553.073593807159341
99588.340221843420295
99605.389038512934349
99606.582432346462156
99600.251814820658183
99594.033464350781287
99589.823072104831226
99584.521745995327365
99574.506696751646814
99559.644598649421823
99544.684972729577566
99536.113299518372514
99537.770968068347429
99549.046937234277721
99565.790127900298103
99583.335054072915227
99599.09965073830972
99613.243716924218461
99626.38276473422593
99639.456605005980236
99780.335568470560247
99784.487996183132054
99785.38742632123467
99787.384503261477221
99793.4213898533053
99803.234985236122156
99813.391737365527661
99819.203680608246941
99817.537610543120536
99808.579149513767334
99795.818893963616574
99784.563181286168401
99779.309846503136214
99781.544220782234333
99789.436673826057813
99799.369106075289892
99808.1333450187376
99814.328220751791378
99818.558665019299951
99822.566561258659931
99827.840697209525388
99835.020125529990764
99843.820140758500202
99853.539345421668258
99863.737343441360281
99874.504186374557321
99886.438150419664453
99900.221807145368075
99915.55335303726315
99930.236014622161747
99940.291127902935841
99941.309266539290547
99930.492259007980465
99908.358387793094153
99879.133048285570112
99849.060036039445549
99824.166630834835814
99808.164727485564072
99801.282780651890789
99800.527918798732571
99801.326001131223165
99799.58421550890489
99793.508485493730404
99783.969094924323144
99773.579987794932094
99765.025955890465411
99759.72293495372287
99757.210960066353437
99755.584164387924829
99752.830337669904111
99748.168614386944682
99742.660633729072288
99738.531709784947452
99737.505966960234218
99739.560031664237613
99742.68419317601365
99743.884868134686258
99740.663890647512744
99732.045775226899423
99718.777493718560436
99702.457676322665066
99684.431220876722364
99665.191655107933911
99644.59197550798126
99622.795182215195382
99601.097026274248492
99581.900889580356306
99568.078731111658271
99561.986746372960624
99564.32121882183128
99573.672405253266334
99586.63192759238882
99598.720928554423153
99606.047079354335438
99606.644769692036789
99600.947837236759369
99591.442832597182132
99581.543236688841716
99574.426776244188659
99572.054150488751475
99574.771025277848821
99581.348466478331829
99589.479695539048407
99596.513414863904472
99600.2733670197631
99599.856564567395253
99595.97454762988491
99590.916910589643521
99587.735899818566395
99589.005573384201853
99595.763638438133057
99606.985803926116205
99620.059227848891169
99631.870211770976312
99640.011289145011688
99643.491334964550333
99642.746356286952505
99638.952415012390702
99633.376244356564712
99626.984980154651566
99620.508359182756976
99614.852712176027126
99611.49644544707553
99612.422706043580547
99619.554150367504917
99633.744691452287952
99654.102458220004337
99678.030598092082073
99701.809127571585122
99721.614829121084767
99734.353588059704634
99738.575003790305345
99734.75945273063553
99725.06403565328219
99712.696331899423967
99701.04812888187007
99692.929899394730455
99690.039438278676243
99692.61070618184749
99699.394925915679778
99708.046195575821912
99715.730600999595481
99719.964613040181575
99719.314943925506668
99713.681738526021945
99704.007067789963912
99691.679862147837412
99677.985548872660729
99663.745681765896734
99649.165554506151238
99634.083620957680978
99618.440444563995698
99602.815295779320877
99588.690021458023693
99578.00602840562351
99572.348713757324731
99572.190411951276474
99576.638713790482143
99583.707535072768223
99591.065094428646262
99596.859835525159724
99600.344148960342864
99602.038590145108174
99603.426888587535359
99606.327686294360319
99612.142222625916474
99621.45229456591187
99633.836671141078114
99648.046621986912214
99662.431587202430819
99675.599588086493895
99686.80264141036605
99695.942683838467929
99703.358578161714831
99709.529821177697158
99714.99373446557729
99720.156431813244126
99725.343057960664737
99730.788278633728623
99736.470708414417459
99741.967132399295224
99746.195382108184276
99747.360871291224612
99743.47230832502828
99732.951150488181156
99715.441078189163818
99692.258826395118376
99666.451144478633069
99642.244405733741587
99624.124635304950061
99615.463140097461292
99617.501680891480646
99628.941726586068398
99646.3695964137587
99665.293684175805538
99681.621590349648613
99692.856869199866196
99698.531305463737226
99700.060631025131443
99699.976791579596465
99700.773881825312856
99703.878860502780299
99709.197657302109292
99715.281936360916006
99720.022661722512566
99721.397986747615505
99718.189612701782607
99710.284790941543179
99698.484437681749114
99684.068181420982
99668.242005807653186
99651.798960171669023
99635.183348569888039
99618.624193150011706
99602.431711604149314
99587.323464332148433
99574.488676739842049
99565.444167342939181
99561.495178088589455
99563.150914672893123
99569.746269046634552
99579.449753386041266
99589.721327794424724
99598.033425536283175
99602.368301034744945
99601.873709150357172
99597.176799990193103
99589.943623036931967
99582.139739436825039
99575.641996402438963
99571.729341530561214
99571.06301168394566
99573.614314199105138
99579.053554864964099
99586.945355679752538
99596.814069221523823
99608.127751827356406
99620.142954985392862
99631.934909148316365
99642.501808976769098
99651.015026050619781
99657.131896469261847
99661.00323765646317
99663.362894250167301
99665.20455391521682
99667.607825161190704
99671.368865725700743
99676.610490947467042
99682.901679017086281
99689.474279846355785
99695.541881398050464
99700.607505282489001
99704.569279419229133
99707.814126503857551
99711.102506874041865
99715.299127303704154
99721.160613014886621
99729.117567537527066
99739.117181446417817
99750.591803533912753
99762.593679720972432
99773.994260574268992
99783.774711008998565
99791.237952853567549
99796.109563950274605
99798.468964648840483
99798.599288078694372
99796.8656789859524
99793.684445685808896
99789.611895297683077
99785.370854419088573
99781.862489721985185
99780.03132604577695
99780.826535770480405
99785.019827010401059
99525.486067763966275
99487.322243383197929
99281.605756995879347
99272.697609349517734
99320.986538714030758
99228.145367030549096
99177.15868946815317
99284.908163673768286
99382.692317682071007
99342.231340949278092
99271.134287820066675
99278.957546181307407
99346.616376870762906
99442.205641763765016
99485.118129218841204
99397.450111704398296
99242.396093476403621
99155.668598373682471
99198.580437003620318
99291.217347373210941
99315.120401137595763
99273.781500242039328
99278.655060105666053
99351.686152655835031
99400.00629145053972
99391.919362947315676
99373.543895229042391
99353.707813561573857
99311.701212513667997
99282.009134978085058
99313.540210527818999
99376.261441871203715
99378.367216987273423
99309.510588930876111
99240.245570346785826
99202.607623710253392
99190.31115153459541
99217.209727795459912
99279.619002995314077
99322.953276792133693
99316.926519199696486
99306.380688057804946
99336.951974961717497
99383.298929640004644
99405.806116193867638
99411.978378638654249
99420.634395863351529
99421.514237814291846
99408.119827443326358
99407.906368212337838
99437.14614743491984
99465.620979966915911
99461.905763234128244
99434.249660282715922
99412.83926123107085
99405.009480035427259
99394.087669102387736
99371.64731184541597
99350.210097728529945
99349.195110569271492
99367.06137899440364
99386.659481113238144
99395.701966816297499
99391.989649828334223
99382.1056186575006
99376.882920611242298
99381.56148721135105
99393.971490664218436
99409.035274677808047
99418.364874166916707
99421.684205874247709
99424.654613248625537
99423.810624043282587
99418.8806148499134
99414.145892422006
99415.399852271715645
99419.102533567755017
99412.635329965487472
99397.559304505586624
99386.618883961142274
99389.059673277006368
99398.078253988394863
99399.594693849488976
99389.268446928603225
99377.088028165046126
99379.560245594475418
99403.854060078447219
99444.728188241686439
99485.087510357247083
99510.243381193897221
99517.540320312094991
99524.072851478427765
99544.706383451732108
99576.974977051228052
99600.892502219547168
99601.376940474947332
99583.59995778996381
99566.829251557122916
99559.962233919461141
99559.752984236474731
99558.693070203575189
99553.016018639231334
99545.046568670630222
99538.346871016867226
99534.738052520537167
99537.326465913982247
99549.516936732979957
99571.640670391061576
99600.342453093951917
99626.179556994742597
99641.20829568390036
99641.698337004869245
99633.207303670744295
99626.515077066753292
99629.116435229429044
99637.801118678384228
99643.203375544078881
99639.109497571218526
99628.72941402484139
99618.71399294368166
99610.665672079805518
99604.545134090032661
99601.904229288658826
99606.16447058977792
99618.935657700349111
99633.879497283312958
99636.944081091045518
99620.397996823929134
99589.936830264690798
99560.025066914182389
99541.076447263461887
99532.812218374965596
99527.817065195093164
99520.292183541198028
99511.829117826026049
99507.732315589746577
99509.861138204796589
99511.467355938701076
99505.805228642420843
99489.237317417660961
99466.02475393450004
99445.111211042269133
99433.016795622359496
99430.677595748042222
99434.81264838608331
99442.025100505677983
99450.543085985031212
99460.902575601445278
99471.908561869044206
99478.951554580169613
99480.421370965006645
99476.537884165969444
99470.185793053882662
99462.224461088349926
99453.42248392876354
99439.983212505743722
99421.871506862255046
99403.380467277369462
99388.416021950513823
99380.258689316789969
99379.569191976508591
99383.141184664549655
99385.433103873074288
99383.607414695230545
99379.039165969414171
99379.000402602134272
99391.217493388103321
99418.655292838055175
99459.194469160254812
99502.610774448039592
99539.675055131330737
99565.946075102838222
99582.241918592262664
99593.074388597160578
99601.244189163408009
99605.056035749817966
99599.949198519825586
99583.919604784532567
99560.228046625794377
99537.026556584591162
99523.238595355360303
99523.459458051162073
99536.354616741591599
99556.836647187112249
99580.175537461516797
99603.325155732876738
99624.50194692745572
99642.543183724090341
99655.984462694439571
99816.253876214308548
99821.822718812487437
99820.554185641696677
99816.339706093174755
99813.389377426428837
99813.9163405008876
99816.880991797806928
99818.730867570746341
99815.826122820493765
99806.855799106022459
99793.964361993464991
99781.891615195781924
99775.76133484406455
99778.494636194795021
99789.380342541713617
99804.663281757209916
99819.688227006219677
99831.1443352237402
99838.161014486919157
99842.238255305361236
99845.853522753212019
99851.067244779522298
99858.821695595121128
99868.77524757682113
99879.955002297487226
99891.584704194057849
99903.429136357677635
99915.644388755157706
99927.980116336111678
99938.877436001144815
99945.370572170257219
99944.283827138351626
99933.82985662187275
99914.839035033146502
99890.828687419605558
99866.622646003219415
99846.495656726765446
99832.753715839717188
99825.207140610815259
99821.508103184154606
99818.228980808038614
99812.567527582694311
99803.758973681789939
99793.289202792017022
99783.888444281648844
99778.089505094380002
99776.70598537690239
99778.241580887886812
99779.577947023048182
99777.707895530271344
99771.471544396350509
99762.297350642431411
99753.323951989717898
99747.384520662526484
99745.20997176542005
99745.05282130058913
99743.788188645019545
99738.549279467770248
99728.104964989717701
99713.218672144415905
99695.835467677010456
99677.781026465891046
99659.953121609287336
99642.314027523374534
99624.625577281709411
99607.290368274552748
99591.880130084711709
99580.883304428512929
99576.828871679244912
99581.055647493471042
99592.811757359697367
99609.155361637036549
99625.585871685878374
99637.479819806147134
99641.578798229442327
99637.066550897579873
99625.716845054383157
99611.091299927415093
99597.253002214420121
99587.555558163643582
99583.874364335468272
99586.208796429928043
99592.780249071656726
99600.751738004371873
99607.265142206728342
99610.354504472503322
99609.760838598260307
99606.915284767441335
99604.103814887290355
99603.653472122023231
99606.916420040113735
99613.562324432685273
99621.970122984203044
99630.068430983184953
99636.135165220475756
99639.166573933543987
99639.055768766003894
99636.298257983769872
99631.601053417020012
99625.740205822323333
99619.80281662530615
99615.353507833307958
99614.12009315371688
99617.505294710819726
99626.114749446496717
99639.564643828300177
99656.390374663678813
99674.447055294236634
99691.389327714263345
99705.161714651578222
99714.256737854506355
99717.845177800380043
99716.010178014781559
99709.792071806397871
99701.099354755642707
99692.27387113153236
99685.503096789892879
99682.342535558738746
99683.248860170220723
99687.383327195158927
99692.855854302004445
99697.415198736474849
99699.227293102288968
99697.423802835313836
99692.228522202552995
99684.495572053303476
99675.123798499786062
99664.639452091883868
99653.129064310749527
99640.445889030917897
99626.531531323082163
99611.705646480710129
99596.836832871631486
99583.312199295061873
99572.73348569481459
99566.277527999598533
99564.070933560127742
99564.993119365914026
99567.148859874738264
99568.635807046623086
99568.329333848028909
99566.366796427129884
99564.116399739214103
99563.596588311032974
99566.824731467000674
99575.085055513656698
99588.516751072340412
99606.042728110303869
99625.678536377454293
99645.114453694506665
99662.305815604617237
99676.011681750940625
99686.029477422329364
99693.088985942449654
99698.334747787273955
99702.921703189291293
99707.756096332101151
99713.402215226029512
99720.147723144109477
99727.826719358476112
99735.621781307316269
99741.972788714672788
99744.707913051533978
99741.746432328538503
99731.643059585840092
99714.251966870680917
99691.241742485173745
99666.107618521535187
99643.351569818260032
99627.400595249215257
99621.338186011518701
99625.983661599180778
99639.614406064982177
99658.481355053183506
99677.961185111111263
99694.154275997439981
99704.945043540574261
99710.392421484764782
99712.331232374781393
99713.380427495925687
99715.745483777282061
99720.251794259078451
99726.126102884998545
99731.413504425741849
99733.684741106131696
99731.059197567825322
99722.844928117439849
99709.649298454576638
99692.976881054841215
99674.567763366867439
99655.848785811220296
99637.655039508448681
99620.205934868252371
99603.508110904309433
99587.759736960782902
99573.730734758632025
99562.762396755468217
99556.408730242823367
99555.798733485076809
99561.087013535230653
99571.103552808228415
99583.423541863507126
99595.028187169649755
99603.187162855669158
99606.146514448613743
99603.463256732313312
99596.234555517163244
99586.584506278348272
99577.035150330120814
99569.712878843405633
99565.912766259774799
99566.103831767264637
99570.060686212527798
99577.106348479472217
99586.480345210933592
99597.415302957306267
99609.172304861756857
99621.05003340865369
99632.258793108747341
99641.955636272177799
99649.545136545217247
99654.761967616868787
99657.868139556594542
99659.541684882307891
99660.749672770674806
99662.399883551785024
99665.088129922238295
99668.871604125597514
99673.276352360669989
99677.608939395780908
99681.26733371935552
99683.959809676991426
99685.855924886593129
99687.57728963792033
99690.002256167572341
99693.959028800803935
99699.937789602467092
99708.044883318507345
99718.049397500319174
99729.338325581964455
99741.024017594463658
99752.126556558025186
99761.790640849198098
99769.487055844074348
99775.014711763054947
99778.502651620146935
99780.205924842419336
99780.371767209202517
99779.232907050609356
99777.169643131332123
99774.772146057250211
99772.83778642649122
99772.272378013003618
99773.985027071801596
99778.804030940576922
99787.207060106244171
99665.669961561827222
99393.526370093240985
99384.15794068883406
99447.926209022931289
99572.065182452060981
99564.65187835280085
99471.162765867396956
99465.600703456409974