/*--------------------------------*- C++ -*----------------------------------*\
  =========                 |
  \\      /  F ield         | OpenFOAM: The Open Source CFD Toolbox
   \\    /   O peration     | Website:  https://openfoam.org
    \\  /    A nd           | Version:  12
     \\/     M anipulation  |
\*---------------------------------------------------------------------------*/
FoamFile
{
    format      ascii;
    class       volScalarField;
    location    "0.007";
    object      pPrime2Mean;
}
// * * * * * * * * * * * * * * * * * * * * * * * * * * * * * * * * * * * * * //

dimensions      [2 -2 -4 0 0 0 0];

internalField   nonuniform List<scalar> 
75962
(
881482.88640594482422
861816.45571517944336
853371.23658561706543
847405.26353073120117
842610.48357200622559
838396.82609748840332
834328.97869110107422
830294.6646614074707
826261.51014518737793
822247.78580856323242
818274.09310340881348
814388.72686195373535
810595.86865234375
806833.74871635437012
803120.90647315979004
799555.3139476776123
796173.87333869934082
792940.92688369750977
789775.29515266418457
786600.39506149291992
783412.14536285400391
780252.52490997314453
777166.43817520141602
774164.52377891540527
771297.65181732177734
768638.82724380493164
766227.7038459777832
764092.39078330993652
762246.43724060058594
760639.33648872375488
759195.13055229187012
757861.38240814208984
756629.2658634185791
755494.92273330688477
754426.55922698974609
753382.50375366210938
752348.49474143981934
751320.63354110717773
750290.94298934936523
749249.89748573303223
748193.45882987976074
747109.05316925048828
745968.42749214172363
744751.33438491821289
743458.88415336608887
742092.60671806335449
740646.5011157989502
739115.03394508361816
737508.06172752380371
735827.00230026245117
734055.49889373779297
732184.35537338256836
730199.15202331542969
728090.12394523620605
725870.41370010375977
723569.21158981323242
721222.22031593322754
718857.87296295166016
716491.74388885498047
714138.32450103759766
711818.95903968811035
709556.15025520324707
707367.1607723236084
705260.35005378723145
703232.46905136108398
701270.44274711608887
699355.79912948608398
697466.47740173339844
695583.46910667419434
693699.63799858093262
691831.05901336669922
689992.11150360107422
688172.58315467834473
686347.87834358215332
684499.54316902160645
682626.78460311889648
680738.74424934387207
678842.43503761291504
676937.82456016540527
675014.24054718017578
673065.1941967010498
671101.35951805114746
669145.2116870880127
667216.22149276733398
665316.34142303466797
663434.0070972442627
661553.16998481750488
659666.48122787475586
657787.29299354553223
655947.47607040405273
654167.08716583251953
652440.1295051574707
650745.1208438873291
649063.77289009094238
647401.30111312866211
645786.91617584228516
644241.92164421081543
642759.3769359588623
641309.92526435852051
639861.69690132141113
638402.70114707946777
636944.01024055480957
635505.38394737243652
634097.47108840942383
632715.2443904876709
631345.81571769714355
629977.68548774719238
628596.43033790588379
627184.51144981384277
625726.36766052246094
624214.32203102111816
622651.7051830291748
621047.65700149536133
619408.58882522583008
617735.74017715454102
616028.40399932861328
614288.77399253845215
612519.47903823852539
610715.17384910583496
608862.9176082611084
606948.6229419708252
604964.22360229492188
602911.6673755645752
600799.72432708740234
598635.37920188903809
596425.75275993347168
594187.03317832946777
591943.89051246643066
589719.20987701416016
587528.86930656433105
585380.61181259155273
583277.51989555358887
581222.15295600891113
579216.5684871673584
577260.21567535400391
575352.47537231445312
573494.94770622253418
571689.64469146728516
569938.71234893798828
568242.73836517333984
566597.76200485229492
564996.17959403991699
563428.98837661743164
561886.27598571777344
560359.42709159851074
558843.81680488586426
557337.44740295410156
555837.8438892364502
554338.54114532470703
552827.40827751159668
551287.32806015014648
549701.47415161132812
548058.31924247741699
546355.95988655090332
544602.32479095458984
542811.56650543212891
540999.53972625732422
539181.57806587219238
537368.46108627319336
535560.84515380859375
533744.06118011474609
531893.50043678283691
529992.27665328979492
528043.63971138000488
526067.20199584960938
524080.5805606842041
522086.71730422973633
520075.47125244140625
518036.90839767456055
515974.76628684997559
513904.37259674072266
511844.04259300231934
509808.36611175537109
507807.71475791931152
505847.77014923095703
503928.76935577392578
502048.29762840270996
500205.38333129882812
498400.90863609313965
496636.76826286315918
494915.28134918212891
493239.09810638427734
491611.54553985595703
490035.76708030700684
488511.2437915802002
487031.34142875671387
485585.80565643310547
484165.59847068786621
432557.53011131286621
431414.78751754760742
430263.69156265258789
429099.47576713562012
427918.2293529510498
426719.57707977294922
425506.22815704345703
424281.57489395141602
423048.77493667602539
421811.55340194702148
420574.59401893615723
419341.95527839660645
418115.49001312255859
416894.50391006469727
415676.34426307678223
414456.55480575561523
413229.19728469848633
411988.62783813476562
410732.2667236328125
409462.05122566223145
408183.29508399963379
406901.42708206176758
405618.46929168701172
404331.49143409729004
403035.07901573181152
401725.88217735290527
400404.48283386230469
399073.21600151062012
397734.25948143005371
396391.08294105529785
395051.20592880249023
393725.93395042419434
392427.50264358520508
391167.20120811462402
389954.36064529418945
388794.30294418334961
387685.85364532470703
386620.62063026428223
385584.34390640258789
384560.40297317504883
383535.20557594299316
382502.91568756103516
381466.43225860595703
380433.71786689758301
379412.52852058410645
378406.72690582275391
377415.65939140319824
376436.32023048400879
375466.70952415466309
374507.92601585388184
373563.02043342590332
372633.78342247009277
371718.82121276855469
370814.19640159606934
369915.33434104919434
369017.9846019744873
368118.33919525146484
367213.86039161682129
366304.58163642883301
365393.76908683776855
364486.78499984741211
363588.55255699157715
362701.06292533874512
361822.24165725708008
360947.27880477905273
360071.40138053894043
359191.69462203979492
358306.76801109313965
357415.05258560180664
356514.32070732116699
355603.34765815734863
354683.00749778747559
353754.91164016723633
352819.5936450958252
351876.65592002868652
350926.50103759765625
349970.92870140075684
349011.42295074462891
348046.96017074584961
347074.17909812927246
346089.8008975982666
345092.50484848022461
344082.35859870910645
343059.28533744812012
342022.80769729614258
340973.15488052368164
339911.82419204711914
338840.98577690124512
337762.54388809204102
336677.28812217712402
335584.49320793151855
334482.65869522094727
333371.36258697509766
332252.75193214416504
331131.00489044189453
330010.19158554077148
328892.16368103027344
327776.38192176818848
326662.14581680297852
325551.64291763305664
324450.7807559967041
323366.66976547241211
322304.11541366577148
321263.74829864501953
320242.01163864135742
319232.09563064575195
318226.12063789367676
317218.29486083984375
316206.96125030517578
315194.01181793212891
314182.86698722839355
313177.77738571166992
312184.21168518066406
311208.2069263458252
310253.77248001098633
309320.44206619262695
308403.19118118286133
307495.07767868041992
306591.15026664733887
305690.8589038848877
304797.02080154418945
303912.52503395080566
303038.08247756958008
302172.48826026916504
301314.32308769226074
300462.8973217010498
299617.76284599304199
298777.81072044372559
297941.23890113830566
297106.46078491210938
296273.09541320800781
295441.63244247436523
294611.69935989379883
293780.45235633850098
292942.39864158630371
292090.81183052062988
291219.34780693054199
290322.796875
289396.97885513305664
288439.07228851318359
287448.97290992736816
286430.55718421936035
285391.77868461608887
284342.68936347961426
283292.01183700561523
282243.90340423583984
281196.99901008605957
280146.57021522521973
279087.86903762817383
278017.81889724731445
276934.47472763061523
275835.84830856323242
274720.17436790466309
273587.54291343688965
272441.04724884033203
271286.14710998535156
270128.74462890625
268973.59546089172363
267823.99996185302734
266682.52414321899414
265551.92022132873535
264435.65881538391113
263337.71897125244141
262261.74576759338379
261210.1546516418457
260183.90633010864258
259182.98447036743164
258206.76721000671387
257253.73306083679199
256320.79444885253906
255403.03096961975098
254494.65723991394043
253590.85359191894531
252689.42841529846191
251791.54011535644531
250901.21551322937012
250023.69852828979492
249163.27073097229004
248321.74482727050781
247498.67997169494629
246692.97375106811523
245904.25345802307129
245132.73341178894043
244377.8108081817627
243636.89050102233887
242905.70308876037598
242180.08141899108887
241457.93686485290527
240739.91862678527832
240028.4398307800293
239325.80061531066895
238632.78432273864746
237948.6191577911377
237271.9054069519043
236601.57289505004883
235937.29019355773926
235279.10930442810059
234626.82380104064941
233979.64453887939453
233336.25962829589844
232695.082275390625
232054.68813896179199
231414.14606666564941
230773.11144256591797
230131.52978706359863
229489.09882926940918
228844.94085311889648
228197.71931076049805
227546.02999877929688
226888.43722534179688
226223.00169372558594
225547.39139556884766
224859.9286937713623
224161.0229320526123
223453.3005428314209
222739.84968948364258
222021.85401344299316
221297.67255020141602
220563.96158409118652
219818.04622268676758
219059.74169158935547
218291.77318572998047
217518.98159027099609
216747.07566261291504
215981.53496742248535
215226.87298965454102
214486.32036399841309
213761.55415534973145
213052.38721466064453
212356.63798713684082
211670.74564933776855
210991.33917808532715
210317.06514739990234
209649.48372077941895
208992.20631790161133
208348.89473342895508
207721.58708190917969
207110.42680549621582
206514.61080932617188
205933.26969337463379
205365.56163787841797
204810.47480201721191
204267.25475120544434
203736.4909725189209
203220.88202476501465
202724.70627212524414
202252.42203712463379
201807.45631217956543
201391.89597511291504
201006.79814338684082
200652.37714385986328
200327.79169845581055
200030.84569931030273
199757.82850074768066
902799.63023376464844
875975.87354469299316
864138.6866340637207
855367.24156761169434
848641.3070182800293
843318.04509735107422
838627.46594047546387
834160.83771514892578
829735.22024726867676
825312.5986499786377
820864.5797290802002
816423.67344856262207
812036.32052040100098
807741.37833976745605
803586.16510581970215
799666.80538558959961
796033.00175476074219
792636.16374206542969
789442.7121696472168
786382.34935188293457
783410.75162124633789
780521.75715446472168
777702.59422492980957
774915.23162841796875
772156.24456024169922
769499.16423606872559
767005.67528533935547
764707.2242431640625
762651.51472663879395
760844.18263816833496
759254.34544372558594
757837.05581283569336
756566.91695404052734
755447.13334846496582
754443.5745792388916
753504.55215263366699
752585.77066421508789
751649.0458984375
750661.47616767883301
749612.45237350463867
748504.6147518157959
747335.7971363067627
746084.84635925292969
744739.33895111083984
743306.53137588500977
741796.85213470458984
740212.51634407043457
738553.61404418945312
736829.45677947998047
735047.17214012145996
733194.28168296813965
731248.2891731262207
729208.3364086151123
727077.32648658752441
724859.36545944213867
722562.39605522155762
720208.7356014251709
717823.35664939880371
715426.67232704162598
713038.32136535644531
710689.35193634033203
708414.86656951904297
706241.41481590270996
704175.48005104064941
702208.95465850830078
700321.87812805175781
698492.48247146606445
696695.33248138427734
694908.15110778808594
693121.18072319030762
691346.11290740966797
689582.54387283325195
687816.06923484802246
686034.83071136474609
684237.42419242858887
682426.56901168823242
680602.18220329284668
678759.30546760559082
676895.14354705810547
675006.45341491699219
673087.82146644592285
671149.55159187316895
669216.68935585021973
667310.4234447479248
665430.43841934204102
663562.99645042419434
661695.95314788818359
659827.84151458740234
657971.35073471069336
656149.74142265319824
654378.96413612365723
652654.51176834106445
650955.11189460754395
649260.72764015197754
647573.04088401794434
645919.4940242767334
644327.56267929077148
642797.41879081726074
641303.07875633239746
639813.61250305175781
638312.67753219604492
636805.30173683166504
635310.10288429260254
633840.82336044311523
632398.86689758300781
630976.33657646179199
629562.25691032409668
628140.7172966003418
626691.37014389038086
625198.632568359375
623657.41474723815918
622074.03923606872559
620460.3649730682373
618821.86005592346191
617154.82664680480957
615456.35232734680176
613730.99556922912598
611983.96766090393066
610208.66679573059082
608388.17295837402344
606504.84135437011719
604550.05021286010742
602526.16305351257324
600443.01630210876465
598309.13734817504883
596128.40884017944336
593910.46717834472656
591676.42324256896973
589450.90796852111816
587251.84679412841797
585088.26992607116699
582965.25254440307617
580888.10200309753418
578859.29501342773438
576877.64852333068848
574942.3709831237793
573055.41545867919922
571218.84903335571289
569434.95450973510742
567706.11808967590332
566033.51009178161621
564414.56800651550293
562842.45278739929199
561303.34173965454102
559779.04506683349609
558257.45952224731445
556737.26015090942383
555222.69079399108887
553714.21336936950684
552203.29467010498047
550674.8658332824707
549112.46002006530762
547502.84026336669922
545842.47046852111816
544135.12396430969238
542390.61264419555664
540621.9600830078125
538844.26797103881836
537069.78469276428223
535299.19890975952148
533517.55316352844238
531702.64041519165039
529842.10345458984375
527941.31672096252441
526017.3111743927002
524084.24902534484863
522142.9187183380127
520181.69913864135742
518187.40200805664062
516158.69760322570801
514108.84098625183105
512057.74543762207031
510024.38382720947266
508022.6245174407959
506058.58137321472168
504130.1890811920166
502234.03733444213867
500372.39292144775391
498552.09789848327637
496779.27616310119629
495056.75894927978516
493384.12006378173828
491758.86163711547852
490178.57267189025879
488640.89839553833008
487141.31421279907227
485672.20009231567383
484226.54711723327637
482800.56138038635254
433739.82253646850586
432560.69180488586426
431377.37936210632324
430188.14199447631836
428987.92774772644043
427772.25604248046875
426541.04313659667969
425298.15545654296875
424047.69983673095703
422792.5288200378418
421536.02204322814941
420282.86359977722168
419037.18402099609375
417800.40763092041016
416570.70599746704102
415343.48581886291504
414112.07794952392578
412869.15559005737305
411609.40426254272461
410332.17963218688965
409041.86832427978516
407745.43516159057617
406448.82485580444336
405153.80768203735352
403856.91724014282227
402551.81023979187012
401233.7787971496582
399902.4540901184082
398560.19416999816895
397209.70512008666992
395855.03091049194336
394503.83576965332031
393166.88842391967773
391855.69956970214844
390581.63409233093262
389355.30609512329102
388183.47105407714844
387064.75006675720215
385988.52949905395508
384938.55633926391602
383898.57992172241211
382857.51655578613281
381812.51018333435059
380767.9349365234375
379731.12752342224121
378707.57652473449707
377698.3984489440918
376700.62982177734375
375709.80739974975586
374723.32153129577637
373742.29461097717285
372770.96769523620605
371814.42748832702637
370875.69583320617676
369954.09020614624023
369045.31637001037598
368143.15434455871582
367241.56651878356934
366336.53744888305664
365426.85108757019043
364513.7010612487793
363600.01260757446289
362689.5176830291748
361785.23791313171387
360887.67193031311035
359994.25978469848633
359100.96724319458008
358204.58211708068848
357303.62270927429199
356396.99383163452148
355482.84835815429688
354559.36826133728027
353626.52170181274414
352685.91768836975098
351738.69075775146484
350784.81839179992676
349824.83554077148438
348861.02554130554199
347895.49369239807129
346927.46682167053223
345953.36266136169434
344969.66568565368652
343974.66995429992676
342967.38132667541504
341945.9919319152832
340908.62069511413574
339855.25388526916504
338788.49170112609863
337712.334228515625
336630.54548645019531
335545.24979591369629
334456.11421012878418
333360.56196784973145
332256.01089286804199
331142.89445495605469
330025.84358978271484
328911.28306770324707
327803.36614608764648
326702.14919853210449
325605.72223281860352
324514.27072143554688
323432.0053768157959
322365.45886421203613
321319.94093322753906
320296.89377021789551
319293.00432968139648
318301.42251586914062
317314.84724044799805
316329.16127014160156
315344.65922164916992
314363.94222640991211
313389.32656478881836
312422.43236541748047
311465.76797676086426
310523.35728645324707
309598.90488433837891
308693.080810546875
307802.49552917480469
306921.58951187133789
306046.39749717712402
305176.96369552612305
304316.24140167236328
303466.67811012268066
302627.959716796875
301797.67667961120605
300973.23244476318359
300152.8110466003418
299334.78519248962402
298516.95042037963867
297697.09930610656738
296874.51330375671387
296050.69999694824219
295228.14369583129883
294407.91098594665527
293587.67814636230469
292761.75163078308105
291922.76387596130371
291063.73960304260254
290179.28307151794434
289265.71952438354492
288321.07362174987793
287345.65138816833496
286342.89558410644531
285319.30714416503906
284282.84091567993164
283239.9923152923584
282193.19721794128418
281140.62261581420898
280078.61722564697266
279004.64055824279785
277918.07238006591797
276818.77775573730469
275705.73420524597168
274577.63022422790527
273434.78695869445801
272280.25109100341797
271118.8781795501709
269955.47559356689453
268793.69037628173828
267636.17608642578125
266485.27888107299805
265343.68634223937988
264214.78483581542969
263102.60374641418457
262011.18508338928223
260944.0278377532959
259903.77735328674316
258892.04028129577637
257908.78035354614258
256951.66391563415527
256015.84673881530762
255094.83792686462402
254182.15859985351562
253273.11274337768555
252365.94577026367188
251462.1012020111084
250565.55106163024902
249681.35445404052734
248813.7818431854248
247964.87189483642578
247134.52790641784668
246321.84654426574707
245526.41218376159668
244748.43597030639648
243987.7059440612793
243242.37898635864258
242508.93205261230469
241783.41509819030762
241063.27401351928711
240348.51882934570312
239641.30996704101562
238944.32621574401855
238259.11007118225098
237585.40790176391602
236921.7544002532959
236266.52252006530762
235618.72357749938965
234978.01483726501465
234343.94532012939453
233715.20346450805664
233089.61677551269531
232464.85664176940918
231839.34035110473633
231212.84110641479492
230586.2892017364502
229960.65970420837402
229335.80225372314453
228709.96796607971191
228080.48458862304688
227444.98908615112305
226801.72084999084473
226148.90848350524902
225484.35189056396484
224806.19860076904297
224114.44112014770508
223411.37991142272949
222700.19472312927246
221982.47777366638184
221257.10766792297363
220521.19233131408691
219772.29923629760742
219010.40634536743164
218238.28000640869141
217460.34003257751465
216681.23220634460449
215905.3140754699707
215137.08772468566895
214381.5761661529541
213643.47084045410156
212924.97796249389648
212224.25045394897461
211536.12179946899414
210855.02182769775391
210177.94240951538086
209505.57876777648926
208841.23773765563965
208188.66714286804199
207550.49675750732422
206928.00909614562988
206321.68379592895508
205731.51907348632812
205156.72024154663086
204595.37310791015625
204045.11549758911133
203504.88591194152832
202976.4283504486084
202464.29039764404297
201974.12936019897461
201510.88020706176758
201078.01038360595703
200677.79978179931641
200311.63534355163574
199979.75521278381348
199680.43796539306641
199409.32606506347656
874983.96810150146484
860406.46136665344238
853690.52178955078125
847702.9085636138916
842453.42793273925781
837905.69203758239746
833963.85244560241699
830353.47688484191895
826800.03612327575684
823185.83537673950195
819450.18263626098633
815523.33368492126465
811401.55624198913574
807176.36025047302246
802939.1509895324707
798839.59830856323242
795026.32943534851074
791522.13669204711914
788272.72019195556641
785215.6490535736084
782326.14461135864258
779598.26194000244141
776995.61264801025391
774472.99188041687012
771982.00256538391113
769547.06057167053223
767204.55147933959961
764967.25123023986816
762876.81544494628906
760979.90434265136719
759285.4155158996582
757767.27317047119141
756417.7820930480957
755234.18093872070312
754184.50833129882812
753229.11280250549316
752337.6965274810791
751468.30033683776855
750564.76909065246582
749581.41230583190918
748512.57263565063477
747365.80288314819336
746121.30886459350586
744758.61127471923828
743283.78936958312988
741711.74094200134277
740046.51138687133789
738299.00136947631836
736482.93899154663086
734597.4882869720459
732631.18450736999512
730572.89432144165039
728437.25251388549805
726246.27639961242676
724004.78643798828125
721703.5815544128418
719342.77108383178711
716942.22409439086914
714525.47975540161133
712119.9020824432373
709752.37391090393066
707453.06415557861328
705248.66230201721191
703153.61800765991211
701165.93442535400391
699267.83820533752441
697439.26153945922852
695664.51239013671875
693925.10610961914062
692206.84106636047363
690502.47521209716797
688798.20389747619629
687082.26893997192383
685353.80208778381348
683624.59815979003906
681901.39877128601074
680174.7980899810791
678432.15448188781738
676663.71464157104492
674861.19707489013672
673016.05250358581543
671134.93533706665039
669243.4033203125
667362.91654014587402
665495.9360466003418
663631.83062171936035
661762.3654842376709
659890.7871036529541
658029.31177711486816
656188.60336303710938
654383.46601295471191
652619.81514167785645
650885.60191535949707
649163.01992607116699
647446.57338333129883
645755.22832870483398
644113.67786979675293
642525.65583610534668
640974.05539131164551
639435.10923004150391
637893.08972549438477
636347.45584106445312
634809.94931411743164
633293.61324691772461
631802.16776657104492
630329.16967010498047
628862.61432456970215
627390.36679267883301
625899.80784797668457
624382.09103012084961
622832.18481826782227
621251.93339347839355
619649.94051170349121
618028.92437934875488
616383.82602882385254
614713.03605270385742
613023.30541610717773
611319.08445930480957
609591.3846263885498
607818.70636558532715
605981.50829887390137
604071.46171569824219
602091.49999618530273
600051.4825439453125
597961.11788940429688
595825.56012344360352
593650.6921501159668
591450.73470878601074
589245.28775787353516
587051.47913551330566
584881.89776992797852
582747.80928611755371
580658.2818660736084
578615.8337230682373
576617.1447925567627
574658.08342742919922
572738.27962112426758
570861.43963813781738
569034.96202659606934
567267.54188537597656
565564.28527641296387
563923.86882400512695
562338.16903114318848
560789.57415962219238
559253.67078018188477
557713.1425952911377
556167.58548736572266
554626.83533668518066
553096.89628982543945
551572.08295631408691
550038.97040748596191
548482.42325592041016
546892.14043426513672
545265.28456497192383
543602.55282592773438
541907.75072860717773
540189.79771995544434
538460.38424491882324
536728.56387329101562
534994.01384925842285
533245.64810371398926
531469.34726333618164
529660.75327491760254
527826.92151069641113
525979.8478889465332
524126.67931365966797
522264.37108421325684
520380.27219390869141
518460.80100059509277
516500.92452239990234
514511.62483787536621
512511.80067443847656
510519.6309757232666
508547.39883995056152
506598.85045433044434
504671.17980575561523
502763.72953605651855
500884.88779640197754
499048.78224754333496
497266.61448287963867
495541.99128150939941
493870.66819190979004
492242.43038177490234
490646.83630752563477
489078.35413932800293
487535.22951507568359
486015.74944114685059
484518.21704483032227
483042.70242691040039
433876.08443832397461
432646.36331558227539
431414.40822792053223
430179.12202835083008
428935.44035720825195
427679.19172286987305
426411.48005104064941
425137.09146881103516
423859.87992668151855
422581.61466789245605
421304.41201400756836
420031.80627059936523
418766.92069053649902
417510.70470428466797
416261.11219024658203
415012.71225929260254
413757.51632690429688
412487.81952285766602
411199.62715911865234
409894.39730834960938
408578.34154510498047
407259.69651985168457
405945.3570613861084
404637.89509201049805
403334.17246437072754
402026.97830963134766
400709.8990364074707
399381.06976318359375
398042.27603721618652
396696.15933799743652
395346.41768074035645
393999.84051704406738
392666.02908897399902
391355.36494636535645
390078.38148880004883
388845.36092376708984
387662.95020294189453
386529.20394706726074
385432.69488525390625
384357.52247428894043
383290.38520240783691
382224.95602416992188
381161.74748420715332
380105.2248706817627
379060.22150230407715
378028.83527374267578
377008.87247276306152
375995.2291259765625
374983.29000473022461
373971.88541603088379
372963.91537666320801
371965.14987754821777
370982.56655502319336
370021.91501998901367
369084.32218360900879
368164.89019393920898
367255.3183536529541
366348.45443344116211
365440.35181617736816
364529.08511924743652
363613.49142456054688
362694.10774612426758
361774.08452987670898
360857.62283515930176
359946.80890274047852
359039.92713165283203
358132.85453605651855
357221.94214057922363
356305.50437164306641
355382.91012763977051
354453.01200294494629
353514.56550979614258
352567.77030181884766
351614.21217346191406
350654.92307281494141
349689.75182914733887
348719.29585075378418
347746.18929290771484
346773.03067779541016
345799.2933406829834
344821.42670822143555
343835.88315200805664
342841.01499938964844
341835.77320098876953
340817.71395874023438
339783.99394035339355
338733.96017646789551
337670.26063537597656
336597.52601432800293
335520.29679870605469
334441.34725379943848
333360.65865325927734
332275.48959159851074
331182.44469451904297
330081.04911994934082
328975.86774253845215
327874.59249114990234
326783.24321937561035
325702.9268970489502
324631.10495376586914
323565.79846954345703
322508.55180931091309
321463.94109153747559
320436.76114463806152
319429.022216796875
318438.41457557678223
317459.55215835571289
316487.48883819580078
315520.80415916442871
314561.51843452453613
313612.19947242736816
312673.45973014831543
311744.54704666137695
310825.81917572021484
309919.81308174133301
309029.77295684814453
308156.8739185333252
307298.79941749572754
306451.13958930969238
305610.68391227722168
304777.47355842590332
303953.58349609375
303140.20574378967285
302336.21394729614258
301538.9904842376709
300745.80369186401367
299953.95707130432129
299160.07448577880859
298360.34714126586914
297552.2649040222168
296736.45757293701172
295916.56915855407715
295097.06902122497559
294280.36509323120117
293464.99050521850586
292645.61044311523438
291814.60881233215332
290964.39448356628418
290089.25277900695801
289185.85272026062012
288252.93575668334961
287291.24705505371094
286303.87670135498047
285296.15259742736816
284274.10910224914551
283241.94830894470215
282200.26124954223633
281146.53533744812012
280077.7226390838623
278992.63254547119141
277892.18304061889648
276777.72379112243652
275649.738037109375
274508.4278564453125
273355.44306182861328
272194.60133171081543
271030.53983306884766
269866.81928062438965
268705.43545150756836
267547.6573657989502
266395.0471248626709
265249.86381721496582
264115.15823554992676
262994.73583221435547
261892.87463760375977
260813.81707954406738
259761.2230281829834
258737.34053230285645
257742.15296936035156
256772.84653282165527
255824.19174766540527
254889.79073715209961
253963.69585609436035
253041.77658843994141
252122.59967803955078
251207.52958488464355
250300.02468299865723
249404.3078498840332
248523.88532066345215
247660.66775512695312
246815.04058837890625
245986.71274375915527
245175.72221755981445
244382.7079963684082
243608.38479995727539
242852.49983215332031
242113.05868530273438
241386.73129272460938
240670.43935966491699
239962.98159408569336
239265.41213417053223
238579.8693675994873
237907.78644561767578
237248.86806106567383
236601.30197715759277
235962.98563957214355
235332.56627464294434
234709.35246849060059
234092.37936782836914
233479.54534149169922
232867.75876998901367
232254.15825080871582
231637.47636413574219
231018.6502742767334
230400.1111888885498
229784.09806251525879
229170.99968147277832
228559.03299140930176
227945.21299743652344
227326.63547515869141
226700.89042282104492
226065.41009330749512
225417.0786247253418
224753.19214820861816
224073.13148498535156
223378.92903900146484
222673.79895973205566
221959.65228080749512
221235.73902130126953
220499.46516418457031
219748.5980224609375
218983.36867713928223
218206.90119171142578
217423.79381561279297
216638.25894165039062
215853.66497039794922
215073.85092544555664
214304.4665584564209
213552.26738739013672
212821.97658920288086
212113.31081771850586
211421.06877708435059
210738.40065765380859
210060.71903800964355
209387.34881973266602
208720.49266624450684
208063.10056686401367
207417.41291618347168
206784.78790092468262
206166.30154991149902
205563.12561225891113
204975.94514465332031
204404.19461822509766
203846.14432716369629
203300.23843002319336
202766.82793235778809
202248.83922386169434
201750.72682189941406
201276.69825553894043
200829.73088645935059
200411.94634056091309
200025.49247550964355
199672.59000015258789
199354.31053352355957
199068.87735176086426
198810.81539916992188
892141.75963592529297
869338.50531959533691
858670.9317741394043
850131.23095321655273
842888.57936477661133
836767.42281532287598
831690.16697883605957
827385.23173522949219
823569.51786422729492