/*--------------------------------*- C++ -*----------------------------------*\
  =========                 |
  \\      /  F ield         | OpenFOAM: The Open Source CFD Toolbox
   \\    /   O peration     | Website:  https://openfoam.org
    \\  /    A nd           | Version:  12
     \\/     M anipulation  |
\*---------------------------------------------------------------------------*/
FoamFile
{
    format      ascii;
    class       volScalarField;
    location    "0.007";
    object      rho;
}
// * * * * * * * * * * * * * * * * * * * * * * * * * * * * * * * * * * * * * //

dimensions      [1 -3 0 0 0 0 0];

internalField   nonuniform List<scalar> 
75962
(
1.1541522279483578117
1.1515833983687240316
1.1512690821017128595
1.1525286131162899572
1.1519387016160098636
1.1507668956925507509
1.1498781968879201454
1.1496715542666742227
1.1499312192213355655
1.150396545831009476
1.1508059971228492557
1.1506610587845669258
1.1505962908293090319
1.1510101401011929578
1.1510507910836800249
1.1502422176231614781
1.1492210245927449996
1.1490308938226119206
1.1497802529115577208
1.1504278290150309338
1.1501575793261877845
1.1495404074325390464
1.1495826213841764396
1.1501867704417609861
1.1506303460832421059
1.1507627011577152842
1.1507504234321919157
1.1505302211650805244
1.150254315092996249
1.1504105040446861441
1.150990344163142165
1.1512701888516108095
1.1508398460124265039
1.1499972502332915791
1.1493512095598961142
1.1490785580068507699
1.1490688821705337119
1.1492208168021829096
1.1493296441509188721
1.1492342630363268086
1.1490934570590645158
1.1492754595406389218
1.1498315360850333011
1.1504083397282702794
1.150755053414641127
1.1508981720325213161
1.1508857963043515049
1.1506507527688885073
1.1501895928375482914
1.1496631771341125905
1.1492743978857495879
1.1491702725331773838
1.149313628967661316
1.1496235549946500765
1.1499181920167393933
1.1499124910577120939
1.1494733828988683566
1.1487856208697901916
1.1481656447847738978
1.1478466634067787666
1.1478759055013492141
1.1481437722725049699
1.1484414822752955221
1.1486280381822282504
1.1486615861603719502
1.1485894306953912114
1.1485172171249538042
1.1485866192656686291
1.1487847908360417915
1.148930744743128507
1.1488390603020628422
1.1485824842635941057
1.1483923342613244767
1.1483405694327315505
1.1482772138770647175
1.1479913668035588437
1.1474516104153773544
1.1468938862016158087
1.1465854052814725694
1.1466535008119991268
1.1469925905863704862
1.1473616105671973209
1.1475520834025223493
1.1475209282103016051
1.1474032967039733411
1.1473750009103389491
1.1475129313125718156
1.1477134444620971099
1.1478251789024591645
1.147844614599958124
1.1478856398922756554
1.1480199568912370367
1.1482038114567731935
1.1482767222378840177
1.1481160585042389233
1.1477940207685766172
1.1475715659946199576
1.1476741443467990411
1.1481007990831111343
1.1485866917523468445
1.1488225048916553828
1.1486933379645209996
1.1483292440196501971
1.1479841300132251902
1.1478475211884666685
1.1479678966100179682
1.1482750901043627945
1.1486342397725892717
1.1489199240353258347
1.149032133850095283
1.1489456007957239425
1.1487234772745926747
1.1484787228121795533
1.148297613060105471
1.1482015109715675294
1.1481621625330722392
1.1481494040065991502
1.1481503969249649
1.1481686131359865044
1.1482075600591559184
1.1482847918810932253
1.1484242207292501003
1.1486527973221185572
1.1489657134495643298
1.1492915201177222873
1.149506276417923134
1.149499088658313406
1.1492400284677410927
1.1488256396654092928
1.1483950515260170633
1.1480443319722373197
1.1477931812303301395
1.1476014940194434466
1.1474288826979146538
1.1472620415205436739
1.1471060911794290771
1.1469753812405145688
1.1469021289255600937
1.1469197461992659548
1.1470639492221892386
1.1473333858483216741
1.1476743561781113101
1.147994355021441093
1.1481868667324408584
1.1481762851404999637
1.1479456672913124216
1.1475480305265686187
1.1470729631471050514
1.1466099647131648975
1.1462303322831621788
1.1459788695290917815
1.1458993845540967893
1.1460151737843331521
1.1463316432713566151
1.1467652038264637415
1.1472192813967070357
1.1475874450532137505
1.1478003564202139408
1.1478602216700739547
1.1478152907990462062
1.1477218025081223907
1.1475920984326410945
1.1474055415104349454
1.1471410806244546343
1.1468459141330709095
1.14664303066599782
1.1466713849828078509
1.147003645809399508
1.1475867718951349161
1.148262811218351942
1.1488406428492345945
1.1491802130632000623
1.149246123458497193
1.1490898978355630344
1.1487941305906637091
1.1484251777981666631
1.1480211972255787156
1.1476037846881756987
1.1471994137228285204
1.1468630552838474657
1.146657238660596434
1.1466366145723700942
1.1468217853858417854
1.1472005992834863886
1.1477330435291108746
1.1483723126106279988
1.14908590124067711
1.1498605586863135386
1.157174940753463499
1.1571942206589280744
1.1572435236967144601
1.1573383220748008071
1.1574653930549090308
1.1575872502592101654
1.157662578162307998
1.1576679337540505266
1.157609100259935353
1.157517600412646841
1.1574342667688779507
1.1573879115224383618
1.1573836376094996936
1.1574057046367733914
1.1574317819637018889
1.1574485176170561385
1.1574581970675053011
1.1574746637609001354
1.1575097617817668993
1.1575638711795357416
1.1576277119970528329
1.157689681796594483
1.1577428043891198062
1.1577891151827601757
1.1578384124774512287
1.1579033187844172126
1.1579925531753771928
1.1581029196016263683
1.1582142050763013508
1.1582908514701144576
1.1582918342552150914
1.1581884740619019514
1.1579796920392011472
1.1576969234213034809
1.1573946341431640139
1.1571319154921451133
1.1569512806009367711
1.1568632168916974656
1.1568459041093490658
1.1568598041165092383
1.1568666471629176495
1.1568441741252244448
1.1567899622873250021
1.1567175694339293379
1.1566452554715744849
1.1565855447170891868
1.1565388357753267901
1.1564973972322416529
1.1564538429916522144
1.1564079123115498238
1.1563681239726963934
1.1563469278835338816
1.1563528416177299984
1.156383142582650736
1.1564224409286067985
1.1564481350130617621
1.1564407291965959068
1.1563911949228178333
1.1563024280544844657
1.1561827938991000586
1.1560396321181156676
1.1558757746934646971
1.1556929458943610012
1.155497955866209514
1.1553060458865922477
1.1551388024931672494
1.1550186261052191039
1.1549600727956599311
1.1549625806321464072
1.1550094538357196239
1.1550726639121304817
1.1551225635753945564
1.1551392522080710101
1.155119231608807473
1.1550740777897774425
1.1550252690919926568
1.1549953515990729613
1.1550002298208668083
1.1550435278103821091
1.1551160543498644184
1.1551989030422245008
1.1552692797789516632
1.1553083832373112205
1.155306011641811903
1.1552649291502103956
1.1552015973409424099
1.155142915935882586
1.1551178428177664159
1.155146691241990542
1.1552325090397292939
1.1553589023083505882
1.155495925330405349
1.155611569809658512
1.1556836171466080554
1.1557060535802128332
1.1556883241187896338
1.1556478491791613017
1.1556008237225103841
1.1555557779761440607
1.1555143109094225817
1.1554768863974287374
1.1554507559671780559
1.1554521066657716943
1.1555010396413101237
1.1556111863225351222
1.1557813464337201026
1.155991809738578846
1.1562085869614171507
1.156392982234185407
1.1565138007606292625
1.1565557780768807028
1.1565224506396181159
1.1564339719360245962
1.1563211979907337401
1.1562169476669639234
1.1561476225278222163
1.1561285742148801337
1.1561620141018806862
1.1562373519584629999
1.1563335836997175043
1.1564240681229680519
1.1564835160435860129
1.1564942283383901067
1.1564503533340029229
1.156358029830639067
1.1562319365944646599
1.1560893604060873407
1.1559441665437990565
1.1558031665533223808
1.1556668309912034864
1.1555342085367856786
1.1554081408235341577
1.1552980650348039227
1.1552182686558183367
1.1551826662021835723
1.1551986717427624729
1.155263368547871039
1.1553622225282429437
1.1554732102107370117
1.1555740515602668239
1.155649439351612795
1.1556950382379544973
1.1557171997888460169
1.1557287931493622768
1.155744044863994402
1.1557732367170103771
1.1558203292855822042
1.1558836316360088237
1.1559572800416648697
1.1560355879353898523
1.1561142864113334028
1.156191120532989558
1.1562639645287371426
1.1563296293255296288
1.1563847149322687979
1.156427481350877029
1.1564584784758435987
1.1564811938321015727
1.1564993978856037415
1.156514078588142036
1.1565216966438032209
1.1565135744751333657
1.1564765340767981794
1.1563977180582301063
1.1562712384865312387
1.156103447490299363
1.1559130313102656817
1.1557283978713419614
1.1555806920552460504
1.1554964890232104491
1.155489193514051216
1.1555541070628414513
1.1556694369272837442
1.1558037057914212209
1.1559249608466009018
1.1560112125824784091
1.1560561432324840681
1.1560677982205882497
1.1560636306945830665
1.1560622586602964379
1.1560765836279134344
1.1561087231296596212
1.156150678315379654
1.1561889727980541043
1.1562098308091328658
1.1562037182367825849
1.1561673070540057218
1.1561024816543052918
1.1560148745261773495
1.1559112682426713192
1.1557973452936247671
1.1556769933778319182
1.1555536199411458043
1.1554314587045231288
1.1553164146767349596
1.1552162773289196274
1.1551404038938331009
1.1550977731422216177
1.1550935484491446914
1.1551254407718916095
1.1551837925367860471
1.1552529026584761329
1.1553140838634969878
1.1553521251102754075
1.1553598556418045451
1.1553385513517999694
1.1552959342794895115
1.1552441519170211226
1.1551957709743085889
1.1551606190458774126
1.1551441940061311087
1.1551488109286822681
1.1551750314534527941
1.1552217926573129514
1.1552874690895234
1.1553701040172768
1.1554648133947940103
1.15556401476112236
1.1556592034060855223
1.1557424181406541486
1.1558085897873335846
1.1558567957145446936
1.155890770752626695
1.1559181610130064843
1.1559482808937104892
1.1559882356286799165
1.1560402237213742715
1.156102334202134152
1.1561697014368916836
1.1562362747871390845
1.1562961862419525172
1.1563458763690215303
1.1563857898493883347
1.156420208262710636
1.1564556801939063213
1.1564988907406701379
1.1565548187585386053
1.1566248457510370784
1.1567061178832134249
1.1567928239383422628
1.1568774318284642533
1.1569525586680882157
1.1570124540306538918
1.1570538033422859137
1.1570754280037054418
1.1570778576198037513
1.1570628274206222752
1.1570333059334840797
1.1569937455305625562
1.1569503918624834959
1.1569107851454936142
1.1568834708437534253
1.156877290158301097
1.156899587562733922
1.1509622915890544981
1.1516946519841666507
1.1530497852922378943
1.1552165129320810522
1.1533205709147453799
1.1498084273416784296
1.1483443589936703777
1.1489859122387851009
1.1497840047970393496
1.1503346137068566346
1.1509498253714101068
1.1513041850956098333
1.1514659339160759899
1.1516976478784961557
1.1514726990665833384
1.150373226603474075
1.149263473016368664
1.1490356403089692083
1.1497907380424330359
1.1506152716148541071
1.1505295767041072708
1.1499382991065869586
1.1499040300664147285
1.1504753418022883871
1.1508846080790093858
1.1508841215822900317
1.1507987389289651148
1.1506573989460391338
1.1504229931547078625
1.1504288561051299045
1.1508965174917773489
1.1513206630489041249
1.1510272842314304143
1.1500706065081864882
1.1491997103492761489
1.1488324758751495835
1.148879653193779049
1.1491897771959365127
1.1494928471154897132
1.1494809834820602923
1.1491828869643694322
1.149086637775941222
1.1495099466083484874
1.1501832818665391756
1.1507163505579984797
1.1510254923813898476
1.1511308641440520795
1.1509243490967469015
1.1503960419471401799
1.1498331913858699238
1.1495561083566958605
1.1495741046619141201
1.1496916469797970883
1.1498418810093462561
1.1499796399964290483
1.1499329504703388327
1.1495563340784453743
1.148891625733627464
1.1482480349563499722
1.147889008532101851
1.1478758808564957228
1.1481248804016022103
1.1484429299783136535
1.1486702915478883558
1.1487428001759558693
1.1486919103156114641
1.1486185211737105494
1.1486132531190194062
1.1486899795860991969
1.1487236708118933048
1.1486455760536520287
1.1485349007259986198
1.1484606001445318846
1.1483975727205175676
1.1482124356524927578
1.1478447334827015514
1.1473434670834887772
1.1468506089917420709
1.1465373246758197023
1.1465228860267322464
1.1468069481486269368
1.1472022158577077633
1.1474760986390999395
1.1475286349008881892
1.1474259707046667867
1.1473179146521093053
1.1473179396087895832
1.1474483029876547668
1.1476261346246225958
1.1478339946618862921
1.1480467106530494181
1.1482672305268957214
1.1484719259091684673
1.1485312592109653274
1.1483361068707891306
1.1479614852253123836
1.1476736957904574155
1.147717887059551245
1.1480969488782597487
1.1485436132696429379
1.1487545372513521258
1.1486120080311015279
1.1482363552761691849
1.1478698613912070581
1.1477020443325889332
1.1478073419113636877
1.1481479742969655788
1.1486064144820193889
1.1490230070599560808
1.1492509670480415274
1.1492102122852903001
1.1489422891605605148
1.1485998889408919332
1.1483498240386680322
1.1482770277166911566
1.1483422130495024582
1.1484389053449650664
1.1484835171001956944
1.1484719719452249898
1.1484395167543184346
1.1484266831274654308
1.1484690499211003267
1.1485971760258528729
1.1488235047549453238
1.1491032543371413333
1.149318629500495792
1.1493258368016447957
1.1490678309765502974
1.1486378526086236107
1.1482076627584569817
1.1479074656551000455
1.1477514619649189509
1.1476665920739295146
1.1475733569614294804
1.1474467636765521839
1.1473158616105048058
1.1472133167452307489
1.1471643563085238693
1.1471729168165056834
1.1472366982199226904
1.1473578925416294538
1.1475310920758940991
1.1477220704381490002
1.147868355639809046
1.1479050560876788989
1.1477980421287068413
1.1475625088190524181
1.1472479716007912831
1.1469126529300039952
1.1465946624356273542
1.1463286743304381687
1.1461681436529194134
1.1461648056361182224
1.1463389106021621977
1.1466439986503682569
1.1469925147395569898
1.1473011338451584162
1.1475137620881998846
1.1476176313115065142
1.1476331664980783387
1.1475794214135250915
1.147445965486907804
1.1472173445508095924
1.1469045462510825129
1.146583046558768082
1.1463809358353220791
1.1464220398182833893
1.1467621360386284213
1.1473549428167337805
1.1480395650901014104
1.1486444481904543036
1.1490386755168064958
1.1491841304862151496
1.1491183924978247699
1.1489026123842824845
1.1485760601477461584
1.1481543465715462471
1.1476584091255106479
1.1471410736752529758
1.1466931009405523234
1.1464130522350968189
1.1463667751043513654
1.1465690355622133456
1.1469890693802711201
1.1475760041082698759
1.1482829760659516438
1.1490776899399144373
1.1499281205451297172
1.1508053602889700695
1.1574239923505609262
1.157451424481412916
1.1574544147517669135
1.1574675049638467605
1.1575141683527772063
1.1575917333260188347
1.1576714429599312961
1.1577138271930211832
1.1576920071364977805
1.1576068184368533132
1.1574872425495885686
1.157378423683981028
1.1573198935348010252
1.1573264703432577516
1.1573847065943194679
1.1574648461661996013
1.157539101021865191
1.1575938524064584012
1.1576320353246654093
1.1576665194095923095
1.1577086544881267649
1.1577630593368748446
1.1578267813973128764
1.1578933715871673193
1.157958663115048914
1.1580232393000460256
1.1580924279460369508
1.1581728809762210641
1.1582637635961297029
1.1583489028760536321
1.1583971715434482341
1.1583731999279027747
1.1582540513002399507
1.1580435149643815151
1.1577758193121043817
1.1575022712784786005
1.1572729214930774777
1.1571191440743380241
1.1570437466098544288
1.1570226616119880791
1.1570181401437915625
1.1569957123495882012
1.1569393894136521528
1.1568552589232583561
1.156764280791854782
1.1566886477893312257
1.1566405213758124138
1.1566166802423705207
1.1566016073821940857
1.1565783144036629881
1.1565395336642863011
1.1564932558292480014
1.156457670796359638
1.156447553013943752
1.1564635844452855196
1.1564898490434354361
1.1565016440472926096
1.1564777406745281318
1.1564092240719681115
1.156301643887544861
1.1561681582118890077
1.1560202311297660405
1.1558623196173531955
1.1556932666244443819
1.1555139683065178691
1.1553344505830052125
1.1551741121776804011
1.155056738492129309
1.1550024291063314408
1.1550179882362692219
1.1550928876222714692
1.1551997383321508384
1.1553016543399992067
1.155365873694190082
1.1553750809135245881
1.1553317306543982035
1.1552555875154382203
1.1551745976768377222
1.1551152805243463106
1.1550943868437062445
1.1551154561539054288
1.1551688887303392939
1.1552359887470666777
1.1552949084082460018
1.1553274094168515251
1.1553254844382212507
1.1552943599397071939
1.1552524057364048637
1.1552246676205348841
1.1552327101222656935
1.1552857715443463071
1.1553761617511486559
1.1554828404984556212
1.1555802034243021215
1.1556480956809456195
1.1556778424615838929
1.1556726461519062354
1.1556420623315875051
1.155596573123075288
1.1555442482760069911
1.1554910716759658751
1.1554443014067745654
1.1554158139002679295
1.1554218038850090355
1.1554782818336244432
1.1555928383900926359
1.1557588066547612726
1.1559553817062975245
1.1561521745756540014
1.1563175767492435142
1.1564256312916365577
1.156463674768545502
1.1564349742070760829
1.156356810981578942
1.156255436569012307
1.1561588995957041703
1.1560906763867782043
1.1560651862401298828
1.1560848502310010488
1.1561397812483815706
1.1562108662081460597
1.1562747529059094198
1.1563107123027853707
1.1563065167452666326
1.1562609280345055307
1.1561814942967181263
1.1560796960319899007
1.1559663521498653171
1.1558485724422309371
1.1557283236672293292
1.1556043488153271426
1.1554759681521125092
1.1553475556262591262
1.1552309557595852318
1.1551421008901843201
1.1550943343561690391
1.1550920416962537907
1.1551283374773335666
1.1551870915658128958
1.1552489466971453957
1.1552982097650685844
1.1553281211491750469
1.155342463062757119
1.1553532322973651958
1.1553755147501487688
1.155421222356874722
1.1554956565032332705
1.1555958675273132474
1.1557119413078114079
1.1558303651280203983
1.1559395055422896359
1.1560329024385533891
1.1561094367670781136
1.1561716435899052069
1.1562232972892458882
1.1562687605787562717
1.1563114464519430591
1.156354137493665224
1.1563989452683889336
1.1564459184668729463
1.1564918139357149851
1.1565279469219360564
1.1565396694070375627
1.1565104283648430794
1.1564268161418622682
1.1562852288656240152
1.1560957978904202736
1.155883004129808489
1.1556814118811475911
1.1555281941460378015
1.15545186608487227
1.1554636725883151716
1.1555539027840751043
1.1556950703550545878
1.1558503019398866929
1.155985465433318593
1.1560792928341774299
1.1561271787287874524
1.1561402240104978745
1.156139147708069137
1.1561447992323587997
1.1561694903832859804
1.1562130150371299209
1.1562637991365760648
1.156304461811731743
1.1563180482356050227
1.1562940003522219623
1.1562308993687184788
1.1561350626217492543
1.1560169712927934604
1.1558867484765538158
1.1557511758413498981
1.1556141073333170421
1.1554775212980186172
1.1553438798822572853
1.1552189184201491212
1.1551122736638752553
1.1550363866852477734
1.1550021637392264839
1.1550141872996173564
1.1550674189416538784
1.1551471115983900084
1.1552325052307432784
1.1553025760704758174
1.1553401406963530462
1.1553376930326468841
1.1552999725439370149
1.1552404711229113943
1.1551754864269803136
1.155120643238442657
1.1550867661549117926
1.15507966749547486
1.1550993514390111017
1.1551432300665853692
1.1552077442201285074
1.1552890060977174524
1.1553826453338487124
1.1554825879656545062
1.1555811526909474107
1.1556699997888510989
1.1557420913302292043
1.1557943328910540437
1.1558276436243213325
1.1558478297884065
1.1558630370118097019
1.1558822786370994695
1.1559124205238247018
1.1559548076792769411
1.1560061204379432631
1.1560601606651710327
1.1561104329297740012
1.1561527090119803063
1.1561859365953641721
1.1562130794448548521
1.1562402916978002931
1.1562746715776315298
1.1563224970949208537
1.1563874717370195011
1.1564693848919114227
1.1565637510430668566
1.1566628709410602394
1.1567574822580646288
1.1568391484960585114
1.1569020473294839846
1.1569438049774096733
1.1569649455446937569
1.156967637122809256
1.156954730934070863
1.1569294665934468647
1.1568962265081459417
1.1568607784928941484
1.1568304673650011694
1.1568131467984437144
1.1568168199148185504
1.1568481854461352132
1.1526264887684607441
1.1525857271290103068
1.1511918561391842886
1.1512541060571306328
1.1515836917033857034
1.1505571593192625013
1.1497425947362500676
1.1502938488095029168
1.1510897084037363669
1.151157757006736837
1.1511361752441373607
1.1514820418126019419
1.1517356778508520687
1.1517804291006312756
1.1514676517244430975
1.1505812267291961604
1.1496641626989012597
1.1495211558247584449
1.1502974975348341236
1.1511475135346316279
1.1511013586995098024
1.1503188097258463252
1.1499091267730661148
1.1502357111581902327
1.1506072002700886703
1.1507116405355897193
1.1508321029031527427
1.1509476713699360317
1.1507995874325689378
1.1506060541607501246
1.1507589065972565479
1.1510507564428702487
1.1507904161458422099
1.1499740085248828514
1.1492705701800443041
1.1489720161699072953
1.1489436592003077209
1.149164918327197249
1.1495282479788859753
1.1496158995699266026
1.1492950721789094715
1.1490772858824480629
1.1494302722437552688
1.1501191313196612587
1.1506736257643925825
1.1509788346212237453
1.1510759620725277141
1.1508655437649328857
1.1503655232186789092
1.149934744322884006
1.1498518875366914305
1.1499592852138387222
1.1499897538955810017
1.1499136436558816676
1.1498451169972510044
1.1497289109421293674
1.1493819353064762545
1.1487820312327368111
1.1481658190403980502
1.1478551637755620707
1.1479523528814010724
1.1483220015671773417
1.1487524548217651343
1.1490500145328055304
1.1491104805890479668
1.1489566116791332107
1.1486833852004247891
1.1484083819225150425
1.14824000302404583
1.1482005650709719013
1.1482846620363316159
1.148449137870416914
1.1485325560098151865
1.1484161167625561717
1.1480874221001013957
1.1476421399831122638
1.1471746690278670222
1.146727395595617649
1.1464261615134343497
1.1464166499092320883
1.1467277861250777526
1.147178518683588555
1.1474928227326905983
1.1475070444001922443
1.1472705173853638971
1.1470020343396063467
1.1469209504546165057
1.1471415976233523271
1.1475907705886936316
1.1480897732126471578
1.148450882784814997
1.1486304637683046881
1.1486477878215324289
1.1485216857819033898
1.1482531440314449611
1.1479238107082236908
1.1477168219598816723
1.1477990079748408014
1.1481176818472633716
1.1484513022724753828
1.1485771943853300137
1.1484212118232974831
1.1480956611187043137
1.1478009399728164031
1.1477020425016346561
1.1478750073445593838
1.1482801618547453515
1.1487764549520149693
1.1491927955518985716
1.1493748981077185345
1.1492783003561171107
1.1489718043150780602
1.148623861370376531
1.1484127020770760197
1.1484228813755534837
1.1485875700970893387
1.1487571028772032289
1.1488171440982337668
1.1487687047395824802
1.1486839722746804426
1.1486153225836419622
1.148593318328349433
1.1486341284983974109
1.1487417947755262926
1.1488948896725670323
1.1490154043789384541
1.1489819719470173442
1.1487462299985919945
1.148383470040945431
1.1480434750699746171
1.1478323895698558932
1.1477505763660369453
1.1477218037297218789
1.1476744734669666048
1.1476024468774665976
1.1475454957968680425
1.1475313324543536808
1.1475275892944394318
1.1475022948096882391
1.1474405964305887107
1.14737853666722045
1.1473744975539881263
1.1474520635631360044
1.1475781672161105007
1.1476828966121028763
1.147705467468730367
1.1476210870120904239
1.1474515779533440707
1.1472267270019582686
1.1469599589957166774
1.1466894078044682637
1.1464618416151683977
1.1463365647085679289
1.1463433388144639302
1.1464927262746562597
1.1467315724397610932
1.1470056637974836988
1.147272187818697331
1.1474778213812675265
1.1475808646729004359
1.1475557804661107308
1.147392546190142415
1.1471014981577696279
1.1467377391156809985
1.1463924152283713198
1.1461891937049997203
1.1462286482431311985
1.1465404669647198954
1.147080360545517097
1.1477128029000862597
1.1482938661788371082
1.1487192139744222263
1.1489429578342984506
1.1489765764481671972
1.1488481831573338354
1.1485741999857483897
1.1481624956215064071
1.1476467951126583245
1.1471016155264948111
1.1466353130315025677
1.1463548010896176255
1.1463229448628038387
1.1465448265512845349
1.1469847442552527639
1.147600229291596774
1.1483532424080711287
1.1492066647766288057
1.1501194975198114623
1.1510413693868000173
1.1577110741566163377
1.1577595846518073941
1.1577518725832267599
1.1577176893419576231
1.1576905311119043418
1.1576886501707184252
1.1577041956230806896
1.1577085523757879582
1.1576719893195415167
1.1575837378895892371
1.1574618832059098139
1.1573466696244310015
1.15728223900565097
1.1572947712637884354
1.1573798227970231167
1.1575064759557891492
1.1576348528546416272
1.1577352166016763313
1.1577977274172479571
1.1578325718225304097
1.1578588234599833662
1.1578928194689788178
1.1579421477064599788
1.158004109643180346
1.1580709366915911129
1.1581367131831468154
1.1582003297929841512
1.1582643159269294664
1.1583282756771124955
1.1583811949917055539
1.1584001297079951076
1.1583597051914851228
1.1582452578225721496
1.1580631674436352441
1.1578418622361692503
1.1576208551134246072
1.1574354781256948055
1.1573050737449035452
1.1572284872216085372
1.1571866451264758435
1.1571511975805097716
1.1570984309079235253
1.1570211234220963981
1.1569306566463382069
1.1568490573801186727
1.1567972603032254941
1.15678247629631481
1.156792965991843225
1.1568031991031848538
1.1567879460346366383
1.1567367247817430531
1.1566604933998483329
1.1565849261920959634
1.1565339768238203089
1.1565146995570707578
1.1565134430966435009
1.1565045070320914
1.1564636263290368756
1.1563797580279093768
1.1562584790649890198
1.1561157167069506801
1.1559669121216114007
1.1558199406394296105
1.1556746887638460475
1.1555289056592852326
1.1553852883784312411
1.1552562493507732011
1.1551621695212812568
1.1551243850074892627
1.1551549785033594642
1.1552490104514752112
1.1553831954591629039
1.1555207976723920194
1.1556232701917628081
1.1556626478362888033
1.1556308397474130967
1.1555412657508377094
1.1554226507403473345
1.1553084994209785741
1.1552269515823632151
1.1551942020408600964
1.1552110688882024636
1.155263600636081911
1.1553287548021051734
1.1553829660330250384
1.155409594256840089
1.1554058727897593695
1.1553830275045091636
1.1553595810289447599
1.1553546882194558609
1.1553798601538172175
1.155432937735693999
1.1555009326734446695
1.1555669201679814595
1.1556166986001454866
1.1556418790610376579
1.1556414190687915866
1.1556193383237152172
1.1555814413525207218
1.1555339848766159605
1.1554856432900251217
1.1554490285299796604
1.1554382819240434088
1.1554651012008436695
1.1555347697952338404
1.1556444821469924467
1.1557824932083733405
1.1559312763182740813
1.1560714961113132127
1.1561860822492047163
1.1562624258580014303
1.1562934698861986327
1.1562796691377392744
1.1562293831745735773
1.1561581961676909991
1.1560853886379365285
1.1560290658072747139
1.1560022124014341927
1.1560088392996956674
1.1560422879623135639
1.1560871154543024275
1.156124723519831754
1.1561398066143842023
1.1561249771380903706
1.1560819457105642183
1.1560178236592284495
1.1559402418135553692
1.155853808548478634
1.1557594096716450327
1.1556558325692700695
1.1555424009295527377
1.1554214120260712928
1.1552996392098169309
1.1551882158626036734
1.155100296882660027
1.1550458765137738837
1.1550265186879191681
1.1550334747525345946
1.1550513580803927205
1.155064354562851392
1.1550627465754161882
1.1550470755242669973
1.155028154787075545
1.1550224586214921096
1.1550467957828307597
1.1551122226852101882
1.1552205068484850958
1.155363358367089921
1.1555247889925792659
1.1556858180039852879
1.155829325647912631
1.1559445814577997691
1.1560293312454301695
1.1560891204202630167
1.1561331842513511425
1.1561710854770570478
1.1562105018112631694
1.1562563572686914704
1.1563112944988360731
1.1563742563190264612
1.1564388138835264286
1.1564923462202547633
1.1565169816346938525
1.1564953545852840744
1.1564151313763266771
1.1562744648083373988
1.1560863213270284877
1.1558789176928281339
1.1556891536304993995
1.1555538101417599517
1.1554990698136915483
1.1555327080969546305
1.1556414589843833074
1.155795015869095943
1.1559552905579921767
1.1560896345624163128
1.1561798471794513254
1.1562256714009786496
1.1562417832198033096
1.1562497695432552014
1.1562682234208456755
1.1563045847710848868
1.1563530465865481389
1.1563977491523620422
1.1564185269652800248
1.156399389516658438
1.15633401360620236
1.1562269397886735245
1.1560904027271934336
1.1559388546520541485
1.1557843306350108481
1.1556340450170918821
1.1554900309699887018
1.1553523234059182023
1.1552223288454501748
1.1551060760262692462
1.1550144410890201829
1.1549603099704397469
1.1549533051835438879
1.1549951875006876367
1.1550768401917683725
1.1551785897698119143
1.1552755866292880871
1.1553450225098642612
1.1553718133498185328
1.1553516033590527368
1.1552929383416468134
1.1552131303804051843
1.155133057776061678
1.155070654503415728
1.1550370722918608113
1.1550365867171545897
1.1550676528353363004
1.1551248031186578391
1.1552017932435567626
1.1552922631954847255
1.1553900638192899919
1.1554893123514198283
1.1555834327251763849
1.1556652791910353439
1.1557297831415407341
1.1557745284037064248
1.1558014831494769492
1.1558160935558570159
1.1558263068834815357
1.1558397298786280416
1.1558614688533443982
1.1558922432210554376
1.155928313522473605
1.1559640002589308683
1.1559942880353539785
1.1560166290427609237
1.1560322421436961537
1.1560461078226182963
1.1560654694719618707
1.1560972866180196927
1.1561457711318163799
1.1562119395388021914
1.1562940460077721916
1.1563871856059009247
1.1564840792816180048
1.1565766113065913956
1.1566576233068743829
1.1567226418754381623
1.1567698994703743409
1.1568003453183788309
1.1568159551277485964
1.1568186219423644001
1.1568101134291064458
1.1567933926419506907
1.1567731672741607962
1.1567558843865424212
1.1567490693852817696
1.1567603783635931336
1.1567969309928176624
1.1568630404877315865
1.1539016832121433698
1.1518543958448899112
1.1519696355047037706
1.1526827455528161348
1.1536532004921926653
1.1532856354112219766
1.1520752622390530995
1.1516963070919004064