/*--------------------------------*- C++ -*----------------------------------*\
  =========                 |
  \\      /  F ield         | OpenFOAM: The Open Source CFD Toolbox
   \\    /   O peration     | Website:  https://openfoam.org
    \\  /    A nd           | Version:  12
     \\/     M anipulation  |
\*---------------------------------------------------------------------------*/
FoamFile
{
    format      ascii;
    class       volScalarField;
    location    "0.007";
    object      rho_0;
}
// * * * * * * * * * * * * * * * * * * * * * * * * * * * * * * * * * * * * * //

dimensions      [1 -3 0 0 0 0 0];

internalField   nonuniform List<scalar> 
75962
(
1.154152649982207901
1.1515493105505276716
1.1513081584381130718
1.1525513313836188711
1.1519162317733198098
1.1507453915951950663
1.1498693255230285626
1.1496814387568905502
1.1499425021150757598
1.1504042427633558443
1.1508032581519198612
1.1506590563647665082
1.1506240063476165236
1.1510484611100635366
1.151060018691427933
1.1502172544947897315
1.1491958286017545099
1.1490374574300172839
1.1498099380943425096
1.1504475322416987115
1.1501597226246307315
1.1495519256746331571
1.1496151643691105981
1.1502187545319424444
1.1506438699428387373
1.1507609545160890629
1.1507386605251286316
1.1505128378005091694
1.1502461485017960729
1.1504224318660483117
1.1510096527795292687
1.1512750040755448389
1.1508265599343867613
1.1499785757729881208
1.1493382034268140313
1.1490725717777452441
1.1490688067111964887
1.1492256357163326275
1.1493330108651114152
1.1492335117699201685
1.1490947696617637153
1.1492843589427346185
1.1498424732768759426
1.1504133670360014996
1.150754882102537735
1.1508988055238360548
1.1508878513299807267
1.1506515113337680845
1.1501879096634788358
1.1496616160146997387
1.1492754194345706775
1.1491757094374812631
1.1493223689860840864
1.1496340363127552919
1.149924723805213489
1.149909787116572879
1.1494625495487196254
1.148773680931079344
1.1481582750967207485
1.1478452068252407159
1.1478774306596331023
1.148143622469404157
1.1484370408905575367
1.1486214796810774175
1.1486572780497359414
1.1485909542840551101
1.1485271235183569516
1.1486032795853844402
1.1488009406649890565
1.1489365890275342608
1.1488327477252935349
1.1485728800489998225
1.1483886172479733645
1.1483446046874503654
1.1482815403838240176
1.1479894859757793224
1.1474442702020397622
1.1468861468377833379
1.1465815303242712364
1.1466530531004590632
1.1469913468945478474
1.1473558159634076326
1.1475419256561785186
1.1475110430232007275
1.1473996060361126847
1.1473789461315544447
1.1475192938502309925
1.147715088094152458
1.1478186748318659482
1.1478351646096685013
1.1478815893339815446
1.1480255095257709819
1.1482160346742422696
1.1482870270773768429
1.1481175053010597154
1.1477875576629197329
1.1475639900358101109
1.1476715058255380075
1.1481028849758156962
1.1485878680767749316
1.1488178381914853077
1.1486826775191050221
1.1483164764704780758
1.1479734756955679575
1.1478408660113423867
1.1479649004550254165
1.1482755921145300082
1.148637925695736195
1.1489253653235844688
1.1490373749736817466
1.1489490473592167685
1.1487247155690238909
1.1484781410670454882
1.1482955313619256366
1.1481979930682608693
1.1481577473683184376
1.1481451405842557634
1.1481476801648391461
1.1481677432329464583
1.1482082968192903749
1.148287341440010767
1.1484294995263599759
1.1486615225369036786
1.1489773998698575852
1.1493033252159892132
1.1495139079331586629
1.1494996388719289637
1.1492342563280439904
1.1488171499392885178
1.1483878521105141957
1.1480403268140233486
1.1477916460267427734
1.147600815287001863
1.1474280788848776336
1.1472610720691058805
1.1471053731710316725
1.1469756129402892686
1.1469038934947390906
1.1469237324630752184
1.1470704262915207838
1.1473416933377318383
1.1476828431265750918
1.1480014219340997084
1.1481914718424650612
1.1481784388549209908
1.1479464078132817217
1.1475492945717853388
1.147076172175137021
1.1466154087080688839
1.1462375211786053342
1.1459871945566404428
1.1459089534889721484
1.1460259032782678101
1.1463422777951599585
1.146773041481405464
1.1472224510536999098
1.1475852745053503057
1.1477946824018956384
1.1478548971944702028
1.1478140155967480052
1.147726009016410087
1.1476001675057188045
1.1474141293476669556
1.1471474861214130403
1.1468504705210911254
1.146648572221589335
1.1466810185417037893
1.1470181532708918493
1.1476030382036892519
1.1482761171236020026
1.1488468077166040793
1.1491781258463360516
1.1492378593614038795
1.1490789874128675141
1.1487834481858150149
1.1484158655024623297
1.1480128733097223481
1.1475956186786639979
1.1471911017607911987
1.1468551184913986507
1.1466506486214274041
1.1466320344503870832
1.1468190917180989263
1.1471991088096811229
1.1477318578826254392
1.1483710113269696151
1.1490849200502564198
1.1498607566267537994
1.1571686101809550706
1.1571887530499018748
1.1572400149964026106
1.1573367512208314611
1.1574644602196419996
1.157585058075143003
1.1576576383791439273
1.157659907757615958
1.1575989407309401624
1.1575070401896323524
1.1574249180603266574
1.1573805105197703114
1.1573778857186527436
1.1574006738009749995
1.1574266416135337021
1.157443033459902626
1.1574527909118204061
1.157469980547586319
1.1575061159548631906
1.1575610858502629608
1.157625367600336741
1.1576874117598381364
1.1577405712577049091
1.157787249711963895
1.1578374712459174045
1.1579037959598061924
1.1579945250550363056
1.1581057948243176359
1.1582166781371046049
1.1582911972222302843
1.1582885398803548505
1.1581809859419389674
1.1579687861682195216
1.1576845266556734515
1.1573832198502653767
1.1571236144918983779
1.1569471143144951508
1.156862777491753258
1.1568477084897270668
1.156862067641347025
1.156868038524953235
1.1568441805418629986
1.1567889009010505763
1.1567162289966108624
1.1566444005082687774
1.1565855065767367549
1.1565394546907983298
1.1564982981602576206
1.1564547942413490045
1.1564090167880416438
1.1563697622299360379
1.1563494749506848525
1.1563563495789084268
1.156387140222696841
1.1564260134611930031
1.156450289355813954
1.156440791610371388
1.1563890278991613147
1.1562982597893991521
1.1561769056741888484
1.1560321308878567237
1.1558666892516054059
1.1556825019902869922
1.1554867605651071294
1.1552951056743614444
1.1551293488519667196
1.155011707794759257
1.1549561365811624736
1.154961256434523964
1.1550096350263920897
1.1550728859900210033
1.1551215605359355099
1.1551363731831241211
1.1551145842575296641
1.1550684056080307016
1.1550196354261277332
1.1549907260237877171
1.1549971692123597311
1.1550419889539460527
1.1551154352038330853
1.155198226009728657
1.15526754139734944
1.1553048364124880454
1.1553004328716709459
1.1552577547843694283
1.1551938940234027786
1.1551360683537315044
1.1551130946721408499
1.1551446763837749376
1.1552330055764630234
1.1553609104138840014
1.1554980419574139017
1.1556125578784681718
1.1556828242556191899
1.1557035599449234642
1.1556847375704581982
1.1556439189086351593
1.1555970823297887495
1.1555524143378992363
1.1555113539831147751
1.1554745277604916431
1.1554495825987727287
1.1554530394847104535
1.1555049539091133415
1.1556184416476660282
1.1557914694309223691
1.1560034698955796717
1.1562199216377482269
1.1564021591799209521
1.156519597551242784
1.1565578541327907747
1.1565213745524873801
1.1564310341283972061
1.1563180076497223681
1.1562149877742287085
1.1561479084440968723
1.1561314843845797995
1.1561672821794501953
1.1562441475597737828
1.1563407204628712854
1.1564302836888984416
1.1564877653188561091
1.1564959298651344977
1.1564494815964534435
1.1563550510074578348
1.156227558651884868
1.1560842539897013825
1.1559387527917821537
1.1557976000660949989
1.155661175852835898
1.1555286761953522667
1.1554032269785330378
1.1552944995434886177
1.1552167803345356756
1.1551836856846460222
1.1552021118369601993
1.1552685367169581721
1.1553679892207586732
1.1554783724402839518
1.1555777241392510835
1.155651315423726011
1.1556953739926183466
1.1557166315418967439
1.1557280589431508933
1.1557437279150342135
1.1557736100462439044
1.1558213623700417383
1.1558851330010511127
1.155959030243676855
1.156037420624532075
1.1561161240740436273
1.1561929260276606612
1.1562656625978995351
1.1563311110582976671
1.1563859101477518276
1.1564284002229427983
1.1564592627792276147
1.1564820318538338029
1.1565003743655479784
1.1565150994531734341
1.1565224369282074424
1.1565134710890705438
1.1564749170259458477
1.156394108007650301
1.1562656741613142053
1.1560965939244172151
1.1559061412996101126
1.1557230668889602043
1.1555784729678511003
1.1554985067055532078
1.1554957264954146545
1.155564479359297847
1.1556822503068111541
1.155817286970883595
1.155937833430170425
1.1560225241863355539
1.1560657829869140922
1.1560762868734513198
1.15607179102827895
1.1560708282109979361
1.1560859233605202956
1.1561186800748670667
1.1561607018708499606
1.156198368297186807
1.1562179998054611385
1.1562103086476642755
1.1561722217609904373
1.1561058491830547013
1.1560169459058133867
1.1559122836370347986
1.1557974496562932742
1.1556762423456727884
1.1555520713223712548
1.1554293178511751972
1.1553140187038795084
1.1552141470128627354
1.1551391956622998336
1.1550980584404360041
1.1550955941940288518
1.1551290798524340708
1.1551883277640155878
1.1552573536024659528
1.1553175134683737468
1.1553539314586458442
1.1553598943772713792
1.1553370204342769956
1.1552933662824909078
1.155241235528853494
1.155193099964980652
1.1551585963616501918
1.1551429591153852261
1.1551484106346110448
1.1551754281361703569
1.1552229391865551644
1.155289290900334942
1.1553724692115798778
1.1554674378153737546
1.1555665327624082828
1.1556611989217093761
1.1557435428200331096
1.1558086938404370514
1.1558559975369613326
1.155889395366322514
1.1559166532469551392
1.1559470577602739549
1.1559875542858042419
1.156040151670556515
1.1561027472486078427
1.1561703144088402162
1.1562367496415544288
1.1562962746909637435
1.1563455353946971993
1.1563851588971876261
1.1564195544729369836
1.1564553247204156783
1.1564991025516659917
1.1565557056182311779
1.1566263178661211342
1.1567079615522133373
1.1567947629430268552
1.1568791652294860839
1.1569538094940594597
1.1570130037705863568
1.1570535108954091985
1.1570742347648304005
1.1570757956517290221
1.1570600201674332563
1.1570299768303338173
1.1569902483996297171
1.1569472260916051631
1.1569085200439230832
1.1568826674542938004
1.1568784117768695641
1.1569029380449744604
1.1509516475314969242
1.151731088967753891
1.153131479094220424
1.1552325137636429986
1.1532302765793684962
1.1497303309407038707
1.1483451804867712553
1.1490215283814591007
1.1498066861747255896
1.150352315057963537
1.1509702180668675009
1.1513292343761900582
1.1515036205135629199
1.1517343614103732197
1.1514760633824940861
1.1503454918956288466
1.1492402198483153697
1.1490417766324445559
1.1498218867756668793
1.1506405463933251365
1.1505366001708507984
1.1499496602213561403
1.1499341225685442147
1.1505056980711645398
1.1508950179501393762
1.1508801022522536783
1.1507909338327444448
1.1506462231610852243
1.1504153710584412718
1.1504369157586686878
1.1509167094049064239
1.1513316218512954503
1.1510143319120602623
1.1500457575796552145
1.1491816281561026969
1.1488260698860430775
1.1488830113645844833
1.1491995049679419871
1.1495005734041006118
1.14947955193142759
1.1491780028379416922
1.1490902453007854067
1.1495223448150706513
1.1501946920037962041
1.1507224331244683135
1.1510299904789587089
1.1511338176801841904
1.15092216703518746
1.1503906998018784691
1.1498320188728954339
1.1495622805685681289
1.1495806902077485567
1.1496954753038830521
1.1498442025640629449
1.1499805962219638023
1.1499291919574263776
1.1495470217182597317
1.1488803293536005157
1.1482401923656906373
1.1478857524696655101
1.1478755785963845604
1.1481240778709722594
1.1484399157228259991
1.1486662108067242638
1.1487406610681336616
1.1486946820091399335
1.1486278881713218869
1.148626051256991687
1.1487003491620944029
1.1487252910082759172
1.1486393783828561244
1.1485271470605840083
1.1484557225618783338
1.1483963923338935675
1.1482117800886795234
1.1478426443062688111
1.1473396334801797547
1.1468456729243361458
1.1465325178099730064
1.1465197077421931393
1.1468044303417554985
1.1471974833448503883
1.1474681195221052565
1.1475200365165998395
1.14742068618747739
1.1473179731917806379
1.147321013430153247
1.1474500396725382245
1.1476240040443639323
1.1478304621149386655
1.1480457132986980895
1.1482728645875328599
1.1484825606211854776
1.1485394523137892886
1.1483352290105568461
1.14795230288329142
1.1476628724539232884
1.1477119631316681225
1.1480958886438701327
1.1485422297863177032
1.1487486476621355802
1.1486016032071657555
1.1482244170461188837
1.1478596838734544949
1.1476952957324553228
1.147804622504211336
1.1481499118127003189
1.148612723653119172
1.1490313415029593802
1.1492578593473268267
1.1492127116789452312
1.1489400912819365264
1.1485955320618927988
1.1483462790010443566
1.1482752895599552811
1.1483411891139512218
1.1484370045987697395
1.1484807701890298315
1.1484691595728189206
1.148437474356122312
1.1484260948578721706
1.1484706381988905033
1.1486019445045752008
1.1488321169582735859
1.1491138040316164481
1.1493265328534365555
1.1493271385495300585
1.1490623411075875371
1.1486295079903852123
1.1482014627829921771
1.1479056946959598218
1.1477528034950892355
1.1476682203732218035
1.1475738464418427931
1.14744655037862886
1.1473164393733377153
1.1472156557629371587
1.1471682590269229873
1.1471774676261665693
1.1472412020225903895
1.1473623983505711887
1.1475358796214438772
1.1477271551150218798
1.1478734297304344913
1.1479097887034517278
1.1478025910575822
1.1475675439064267902
1.1472537508305531428
1.1469186505264299392
1.1466002990346975121
1.1463337522900611809
1.1461737818674337941
1.1461714843022405841
1.1463460557571674148
1.1466490504364594827
1.1469938068820968446
1.1472985163998052904
1.1475088703027866988
1.147613767744183555
1.1476328712222589878
1.1475831940235130535
1.1474519531031850406
1.1472229736612966633
1.1469083229150609515
1.1465861217373805037
1.1463861407543525228
1.1464319578230137697
1.1467771453262927128
1.1473721401672396514
1.1480547305115005319
1.1486539280590197798
1.1490412857974259264
1.1491815655693240483
1.1491133180288397586
1.1488967844539623719
1.1485694655543379206
1.1481461043164342684
1.1476481930210544746
1.1471298728199252892
1.1466829906985247511
1.1464058683406053163
1.146363157264520316
1.1465682410201476493
1.1469897255366485744
1.1475770025045952671
1.1482841600664577264
1.1490793269273982258
1.1499304463522532771
1.1508084000487956988
1.1574201096699801017
1.1574460069686924868
1.1574487979414993521
1.1574630012651909716
1.1575111203229551116
1.157589319142700468
1.1576680356432786922
1.157707949234512812
1.1576831897751043154
1.1575958770960228517
1.15747595178404028
1.157368735498657264
1.1573129628887621756
1.1573222034088630483
1.1573820090306161656
1.1574623653487472463
1.1575359279612131846
1.1575898214622837301
1.1576276114750827517
1.1576623577317950442
1.1577052062759329853
1.1577604301191550817
1.1578248011429406183
1.1578918372699906758
1.1579575094022938053
1.1580225959340215702
1.1580925340665702006
1.1581738455097232432
1.1582651850572531771
1.158349709638700098
1.1583959016207800996
1.1583686098149710286
1.1582457914527823917
1.1580324699742687855
1.1577639037716092041
1.1574916692594616752
1.1572653179647145461
1.157115171915945373
1.1570428115252708867
1.1570232936776236876
1.1570186913118960526
1.1569950595317404218
1.1569373765487362959
1.1568525743555790886
1.1567619957719676993
1.1566876190572275007
1.1566410102143975802
1.1566182588729601033
1.1566034662807653799
1.1565797742850187912
1.1565404636313474374
1.1564941129002039855
1.1564590951623816562
1.1564498295430289954
1.1564663556209913153
1.156492196359312663
1.1565025532893253857
1.1564765500447475866
1.1564058613036298784
1.1562965024938007819
1.1561616912355752174
1.1560126722052721515
1.1558536577249853838
1.1556834635553689949
1.1555033422619636063
1.1553238496119990764
1.1551647502622013342
1.1550498176450900711
1.1549987123149887402
1.155017444824785855
1.1550945821702316429
1.1552020713501658378
1.1553028748466602771
1.1553646771010745997
1.1553710213352057501
1.1553252946104488608
1.1552479161215787329
1.1551670490217784693
1.1551089709463686628
1.1550899272732197964
1.1551127958683693464
1.1551674209754150269
1.1552347285531199272
1.1552928226746339568
1.1553237589986091738
1.1553201235743058017
1.1552878248177256282
1.1552457704708158914
1.1552191401335871745
1.1552291608698919134
1.1552843945347774923
1.1553764125046119826
1.1554836964816437295
1.1555805978500093278
1.1556472871523184587
1.1556756170095763281
1.1556692223419942067
1.1556378518043595172
1.1555920047596681677
1.1555396940206990042
1.1554869249425030464
1.1554411019984043296
1.1554143083121335422
1.1554227931877616431
1.1554823435922267905
1.155599969553496198
1.1557683126900466508
1.1559659672223816518
1.156162267133340249
1.1563257002047653277
1.1564307904595862997
1.1564656391484589015
1.1564342802279277134
1.1563545643397761253
1.1562529684529974094
1.1561574420123654772
1.1560910837025901721
1.1560677875129234948
1.1560893815194603906
1.1561454946758167317
1.1562167470481199416
1.1562797748085384963
1.1563141276844808303
1.1563080110654957444
1.1562606254876308665
1.1561797826053561433
1.156077008059855693
1.1559630063922670118
1.1558446823852548402
1.1557238569818375495
1.1555992938114958424
1.1554705422538851245
1.155342342388024246
1.1552268051689618122
1.1551397947262109778
1.1550942406021806885
1.1550939175375034562
1.1551313868471113633
1.1551902374210749613
1.1552512481453252047
1.1552991759824502438
1.1553278805124453932
1.1553416551373827392
1.155352712860383102
1.1553760250051370306
1.1554231490530817439
1.1554989418336159002
1.1556000509480921501
1.1557163367373239904
1.1558343354433477934
1.1559426530690029011
1.1560351215257766988
1.1561108526620351711
1.1561725131863349603
1.1562239235507434376
1.1562694238883488573
1.1563123377943052006
1.1563553835106137324
1.1564005669118719855
1.1564477841612395004
1.156493585146614711
1.1565290370590972646
1.1565392918150880774
1.1565078668870738543
1.1564216850419923865
1.1562777705519169391
1.1560869647060814103
1.1558744024203131406
1.1556749601502400715
1.155525662773882356
1.1554543192687136699
1.1554711482468376094
1.1555653997069554872
1.1557088764569274364
1.1558645086363428245
1.1559985617657595469
1.1560905053728411929
1.1561365679325716904
1.1561485358614695951
1.1561473979370955334
1.1561537967837482999
1.1561795203620055528
1.1562237449892318608
1.1562744186013378389
1.1563140212383793415
1.156325763246265792
1.1562995224580390197
1.1562343412002236143
1.1561368405185277197
1.1560176111472253435
1.1558866401720491179
1.1557505026382586255
1.1556128945023813603
1.1554757499163390566
1.155341696509142313
1.1552167289319430488
1.1551107252789925006
1.1550362391924544614
1.155004028784114567
1.1550182191927380604
1.1550731956364310715
1.1551536976088625508
1.1552386370362772716
1.1553070946547610021
1.1553424329889152578
1.1553376805630992674
1.1552981197522009804
1.1552376175595484575
1.1551724869661808004
1.1551182890508606693
1.1550856039597205971
1.1550798860479125629
1.1551008844592642877
1.1551458584310139166
1.1552112002307226568
1.155292968743846016
1.1553867666140251735
1.1554864459825961998
1.1555843497550901677
1.1556721591464078625
1.1557429782018338038
1.1557939196330264675
1.1558261839171088958
1.1558458031325173909
1.1558609812612812284
1.1558806605207772034
1.1559114613936114502
1.1559544536554546834
1.156006128632121932
1.1560601856613119676
1.1561101671758613474
1.1561519926713503814
1.1561848319571128574
1.1562118713293871863
1.1562393558695864826
1.1562743711954386328
1.1563230974874869617
1.1563890299601102818
1.1564717024929562772
1.1565664349196442817
1.156665453030644386
1.1567595291502930088
1.1568403477892583719
1.1569022247987388319
1.156942924602661682
1.1569630765691023555
1.1569649422575878361
1.156951419731621078
1.1569258079669426653
1.1568925706760360139
1.1568575847651321187
1.1568282570252788055
1.1568124193020530299
1.1568179796322739517
1.1568514666915208355
1.1526452562608155983
1.1525319376451057529
1.151141180358935312
1.1512516686636244945
1.1515657805551728909
1.1505284677341913735
1.1497502591704948927
1.1503306088348084213
1.1511072149739487447
1.1511524923941118814
1.1511402242749360081
1.1515046296792050828
1.1517673376592814094
1.1518091484327817042
1.1514704953129411003
1.1505569477343260409
1.1496401552406578794
1.1495247667075654263
1.150326951986341717
1.1511736056266281825
1.1511065066787777855
1.1503191936747518831
1.1499264265536257579
1.150259255034532524
1.1506178552514152447
1.1507134728356118725
1.1508340467444402311
1.1509455558030121658
1.1507924764573065346
1.1506073113069614777
1.1507729717707146921
1.151059482702891712
1.1507782523905389915
1.1499516721057287949
1.14925401973047836
1.1489636120677688691
1.1489439606585876152
1.1491758385255486097
1.1495415355371159105
1.1496184893212972877
1.1492896779663144269
1.1490788250313466179
1.1494421225442712498
1.1501304394463793823
1.1506784162373435709
1.150981036765641452
1.1510768002644653496
1.1508620873135495533
1.1503618768934600336
1.1499383923872450453
1.1498613713846195239
1.1499642457524417161
1.1499858381662524387
1.1499067619106919658
1.1498404488020463887
1.1497254533980321156
1.1493750515000384915
1.1487730309981241117
1.1481594478395416026
1.1478551499673608216
1.1479567174103535443
1.1483264135893636038
1.1487544649184733281
1.1490496075610157067
1.1491092187301206184
1.1489560693572149486
1.1486839333133544994
1.1484098555458372992
1.1482406191556586705
1.1481997892164583774
1.1482831072107715364
1.1484470420537908897
1.1485292343702362405
1.1484113031873142141
1.1480832790397967891
1.1476393428993525436
1.1471708256907935386
1.1467206181684679311
1.1464185554609822582
1.1464119014446518818
1.1467262151984092267
1.1471766816857988935
1.1474872870483849852
1.147498093324954338
1.1472619560124317495
1.1469982525103070703
1.146923788371365216
1.1471480745874140794
1.1475976871297186577
1.1480927559886386913
1.1484512785093123899
1.1486317289025584909
1.1486512529190127108
1.148524370380574533
1.1482503485399875309
1.1479147308929340543
1.1477061057475033135
1.1477909573709503821
1.1481124433816731756
1.1484464105134353229
1.14857049861137539
1.1484127568066060388
1.14808695389831672
1.1477935095878788463
1.1476973471658771242
1.1478742210360428633
1.1482834598205522436
1.1487829334852235341
1.1491995946250868066
1.1493789136772343262
1.1492776681901302194
1.1489668967168418234
1.1486180847969518215
1.148409526905837641
1.1484231058435181438
1.1485888135685435874
1.1487565852729559879
1.1488139303431315064
1.1487644030613464174
1.1486802075926014766
1.1486125718267361506
1.1485918683273144136
1.1486348149235865446
1.1487457966636636097
1.1489015682910710403
1.1490214721126084108
1.1489837699238316659
1.1487428996331137121
1.148378122807076851
1.14804010728437067
1.1478327621321575691
1.1477532325188672946
1.1477244224400209305
1.1476764309001710185
1.1476050833852009525
1.1475498725280739443
1.1475370815895820087
1.1475326873115545556
1.1475049317123153791
1.1474406965254815294
1.1473779151244209995
1.1473756528650729258
1.1474562517498605452
1.1475848687776648571
1.1476906941928959327
1.147713482797101392
1.1476290583158932357
1.1474590393452852588
1.1472329983207714132
1.1469641647538326712
1.1466915896387983587
1.1464630673704274688
1.1463378250783380352
1.1463449701343135789
1.1464941549625202732
1.1467317009018491714
1.1470048334012934443
1.1472713326163583858
1.1474778831663834389
1.1475822104818875768
1.1475581600808522076
1.1473946605412481681
1.1471023655066165947
1.1467374448005194232
1.146392706997370281
1.1461926848107821808
1.1462372203422113159
1.1465537466780439946
1.1470964863092709685
1.1477281083833623665
1.1483059028429767334
1.1487269745521773157
1.1489470787822639863
1.1489782397438124129
1.1488476320083611526
1.1485705388302456242
1.1481548334294162661
1.1476355357009835334
1.1470889002235493681
1.1466242118866791788
1.1463477411822515784
1.1463206328235679976
1.1465462196134277306
1.1469882982606691701
1.1476047867342054065
1.1483581457839104889
1.149211501511949729
1.1501238362813352989
1.1510445240855338156
1.1577088912442525803
1.1577547748500889302
1.1577454056791494086
1.1577110041815950048
1.1576847121475668523
1.1576837983806289589
1.1576993791548160218
1.1577024481971820435
1.1576637646737257814
1.1575736977183450627
1.1574514220996783287
1.1573376561823160991
1.1572761288647204214
1.1572918919107069158
1.1573792580583426304
1.1575065874058731996
1.1576341392903588545
1.1577329051850429043
1.1577939819812730349
1.1578282057420161699
1.1578547497273370404
1.1578896461614407443
1.1579400164797946093
1.1580027610023679863
1.1580700227498081922
1.1581360239094540265
1.1581998490713560912
1.1582640810276505494
1.1583280549220591471
1.1583802651464918387
1.158397463998069199
1.1583544776911371965
1.1582373263151179987
1.1580533081333244105
1.1578315488050492377
1.1576116628216426285
1.157428528605365603
1.1573007020300969394
1.1572261856356049758
1.1571853134666383323
1.1571496491352706304
1.1570959896257475563
1.1570179292467444032
1.1569275399182596953
1.1568470758767241957
1.1567971441646422992
1.1567841865459369544
1.1567956288014535904
1.1568055552082918691
1.1567889920470981746
1.1567362694335245887
1.1566591884632504428
1.1565838056193560313
1.1565337466693483837
1.156515257249654427
1.1565139721967194752
1.1565039486872994434
1.1564612407658874105
1.1563754073296397262
1.1562526055895654409
1.1561089209822046353
1.1559595769653596697
1.1558121267128274035
1.1556662799160581923
1.1555199551704571359
1.1553762935614153573
1.1552481494924848882
1.155156116004542266
1.1551212995144573004
1.1551550952471096867
1.1552516391247373839
1.1553868650187719691
1.1555236287425605379
1.1556235696261289991
1.1556594655159400098
1.1556242260581885972
1.1555322223946551397
1.1554127219276701943
1.1552992618278512538
1.1552195944658512072
1.1551892800597589606
1.15520836855229736
1.1552622221140562697
1.1553274900451826479
1.1553806786343319146
1.1554056821003289013
1.1554004555943315768
1.1553768342043588824
1.1553536156366983612
1.1553498826837120816
1.1553766635111124561
1.1554311425255501256
1.1554999264148484439
1.1555659694651247982
1.1556151648748140826
1.1556393762987304807
1.1556378892280949611
1.1556149514192319838
1.1555764975272779793
1.1555289438508453692
1.1554811788495262803
1.1554459478281478013
1.1554373034172111812
1.155466627833686033
1.1555387861466517307
1.1556505459376724687
1.155789813983122194
1.1559389208941879268
1.1560785588056052831
1.1561918310744980776
1.1562663895561473559
1.1562955195555864041
1.1562800567426529952
1.1562287149246359697
1.1561573000089926389
1.1560850918070371129
1.1560300060096362351
1.1560046850937266694
1.1560126961853820493
1.1560469641411885711
1.1560918245086435618
1.1561287274577434214
1.156142637524868455
1.1561265249985936965
1.1560823861085536279
1.1560174140054424452
1.1559391548135458105
1.1558520465522503784
1.1557568588904445495
1.1556523905193019086
1.1555381188892424049
1.1554165933002400468
1.1552948482719527235
1.1551841754967129283
1.1550976486301058888
1.155044879085563192
1.1550268820828084593
1.1550344521361912697
1.1550520365759351371
1.1550640440455162139
1.1550612781744742374
1.155044902943891616
1.1550261814416840078
1.1550217018981707717
1.1550480416696355945
1.1551157710051296323
1.1552260810232879429
1.1553701871260801948
1.1555318494975197474
1.155692120290759739
1.1558341619296359504
1.1559476780902080417
1.1560308716032816623
1.1560896137968017516
1.1561332278435807464
1.1561711931734695025
1.156211013680769284
1.156257430094256522
1.156312923687706995
1.1563762126193857238
1.1564405944433091555
1.156493195199681967
1.1565160687627655811
1.1564920186022358273
1.1564091040934838528
1.1562661185435523237
1.1560768244170718244
1.1558700423351964126
1.1556828860874435172
1.1555518311471231208
1.1555022538388035613
1.1555408533090665291
1.155653356959067235
1.1558087952571918233
1.1559690334749332941
1.156101954812898791
1.1561901988499738714
1.156234375059853825
1.156249749115747294
1.1562580232120900359
1.156277434200931431
1.1563147658539416618
1.1563635511021661539
1.1564075376032769693
1.1564265553779791151
1.1564049988339835107
1.1563371345314494842
1.1562280161862539263
1.1560901462408197382
1.1559379697975846746
1.1557833071902301469
1.1556330592549559633
1.1554890138192113191
1.1553511934083908752
1.1552212173025100395
1.1551054548919905685
1.1550150148990931953
1.1549627686187868836
1.154958057472901034
1.1550021375571379867
1.1550852785147875945
1.1551873490505006892
1.1552832989398584829
1.1553504927824098658
1.1553744181873921715
1.1553514468651935321
1.1552907192600998521
1.1552098972441626756
1.1551299482653856199
1.1550685555138375804
1.1550365138031650769
1.1550377502739681557
1.1550704153904876037
1.1551288843477767188
1.1552068087269455887
1.1552977654722711431
1.1553955595269815859
1.1554943189943325255
1.1555874634750571417
1.1556680055076262725
1.1557310196574979155
1.1557743312922346135
1.1558001310742820333
1.1558140544407349282
1.1558241113058809191
1.1558378044016681674
1.1558600434470267526
1.1558912786038744169
1.1559275749065043293
1.1559631901296452128
1.1559931592840406722
1.1560151093565944613
1.1560304921520325738
1.1560444927545081573
1.1560644025941742008
1.1560970749134578117
1.156146548909417815
1.1562136745923445869
1.1562965075904696466
1.1563899650994367008
1.1564867205863311739
1.1565787067755484152
1.1566589093147088274
1.1567230033840720793
1.1567693379785692898
1.1567989369517082121
1.1568138208253595511
1.1568159299799325446
1.1568070752213994723
1.1567902922682689049
1.1567703844974306371
1.156753903785404658
1.156748373304921973
1.1567613700907177776
1.1567998546428381879
1.1568679510489885409
1.1538345691796358938
1.151816398107191608
1.151962866890384074
1.1527086970173159308
1.1536753231569638611
1.1532729550054701129
1.1520587692021919679
1.1517043628726246762