/*--------------------------------*- C++ -*----------------------------------*\
  =========                 |
  \\      /  F ield         | OpenFOAM: The Open Source CFD Toolbox
   \\    /   O peration     | Website:  https://openfoam.org
    \\  /    A nd           | Version:  12
     \\/     M anipulation  |
\*---------------------------------------------------------------------------*/
FoamFile
{
    format      ascii;
    class       volScalarField;
    location    "0.007";
    object      T;
}
// * * * * * * * * * * * * * * * * * * * * * * * * * * * * * * * * * * * * * //

dimensions      [0 0 0 1 0 0 0];

internalField   nonuniform List<scalar> 
75962
(
300.20485163813219742
299.95050397596781977
299.82469274965956174
299.9107277791771935
299.87578795508142093
299.81713494823412702
299.80670162617724372
299.86699793187148089
299.9124238718730453
299.85778441981875631
299.72401220273275158
299.60787437256811927
299.69436228666660327
299.98901886884112855
300.23065628728079446
300.21323541375090826
299.98711689504119704
299.77199858954281808
299.7105346598604001
299.76021274455871435
299.82583183362311274
299.91546097710920549
300.07420188630584335
300.23909273530671271
300.3033484896632217
300.25391681726284787
300.1408429298112992
300.00044693936769136
299.88243531974194411
299.85675198004418007
299.93141461343856236
300.03132500050799081
300.09823847105320738
300.12774597065157423
300.14289644290471415
300.14492928545911354
300.14345196442684482
300.17137546002601312
300.23743592311654993
300.31576592236251599
300.37985469303168884
300.42039360907386936
300.42120277222420555
300.36301485776323261
300.26728951889236896
300.19064804019814119
300.1744115967687776
300.21735236369511313
300.29577699952051262
300.38552618017104123
300.46534245109614858
300.52185557048500186
300.54683962190603097
300.55376031452522056
300.56346797227746492
300.58567856491657722
300.6257076468618834
300.68979447692913709
300.76912470081327911
300.83602768699660146
300.85796056737927984
300.81884420025431837
300.72829215471972475
300.62584515638644689
300.56031398769289353
300.56512152440166119
300.64338814603343053
300.7721094961936501
300.90237673736214674
300.98097304732419843
300.981989029624458
300.9352510201049995
300.90393878052691434
300.93278929502105257
301.02451181151923265
301.14703268438040595
301.26127454212149814
301.34379008865619198
301.38074737904184985
301.36686846577549659
301.30393732488226988
301.20752076958052612
301.10949952378274475
301.04983718221347999
301.05782191650160939
301.13016688035071411
301.22700472134215488
301.28823000837138579
301.27437812456452093
301.20099104086864372
301.12857547842708072
301.12061535013776847
301.20513771745129361
301.35434720313736534
301.50338511009636022
301.59240264185399383
301.60075742924152564
301.54736874205661934
301.47125841049933115
301.40583293414101718
301.36991148450414357
301.36692879504363418
301.38403899814130682
301.39671088853839365
301.37976968303951253
301.32529338337559466
301.25101361061717853
301.19085285226265114
301.17720746244879138
301.22111404658761558
301.30954983686143578
301.41419525009382596
301.50480605000529977
301.55939024034330487
301.5706926201885949
301.54673773867813225
301.50576625593822655
301.46578086700344556
301.43624008182473517
301.41546884048653965
301.39768324285131484
301.37975906940260984
301.36574945182064766
301.36298771828234067
301.37423956537276126
301.39396780372351259
301.41200838850943455
301.42071070609398475
301.42213323463499819
301.42239454676013111
301.42545035514331175
301.4310143920974383
301.43604445207512299
301.43940562105780145
301.44220446837238114
301.44435666198711488
301.44234605805200999
301.43091696520792766
301.40411947474240151
301.35975201275920199
301.29922269244934796
301.22823963900054878
301.15741427333114189
301.10065861435873558
301.07319899555363918
301.08734686608823949
301.14870362700992246
301.25165139678546211
301.37897015685626911
301.50664104912806351
301.61014022540047108
301.67261600734383364
301.68538726883224399
301.64821551300946112
301.56120623145221771
301.43277886940029475
301.27889869553462177
301.12429189570747212
301.00008956267771509
300.93432567042179926
300.94235929076933189
301.01878073256114021
301.13970243755449019
301.27125600315656584
301.38421309519088709
301.46269580482879746
301.50391011113902096
301.51250675100232002
301.4939063422374943
301.45297865934924175
301.39639000857135898
301.33548226758159672
301.28689726556291362
301.26756116418488318
301.28785003807695375
301.3474016529128221
301.4357823745085625
301.53628666899635391
301.63111285951356422
301.70669989603067052
301.75389008663381674
301.76783643701838855
301.74575347282967641
301.68667994309674896
301.59102483141759876
301.46156836344817975
301.30450660308093802
301.1290021272631634
299.62871215947535575
299.62752463595359131
299.63005261762179998
299.6387832051665896
299.65284763439422022
299.66844136325602221
299.68101962129986759
299.68767173078799715
299.68840520989397191
299.68586170049479733
299.68367038982927397
299.68429374897243633
299.68788999848953836
299.69268886204650926
299.69650582927044979
299.69832197356737424
299.69886895654451564
299.70008588087000589
299.70362691421456702
299.70986261799481554
299.71811020790158864
299.72743584258074634
299.73736708924803906
299.74830094044148154
299.76131546790048787
299.77763055943000836
299.79791513465158914
299.8214773290857238
299.84577218913318575
299.86661530442819412
299.87925569643238077
299.88028960306360204
299.86931109677618679
299.84945360936376346
299.82639414759671581
299.80638662342244061
299.7939867992525933
299.79038761680124026
299.79337620416077925
299.79887257832950809
299.80294947334073186
299.80338301887542229
299.8000330757760139
299.79441427454207769
299.78848768232495559
299.78356960585705338
299.77969707401859978
299.77608843293768359
299.77204808401273795
299.76765757706601789
299.76390185027838697
299.76212054235452342
299.76317567089091654
299.76671819352344528
299.7710902870632026
299.77393041597048295
299.77324964111483041
299.76816634970555242
299.75901709082239677
299.74666046087952509
299.73181896257722201
299.7147541118205254
299.69565352020811133
299.67527541391206114
299.65526250164265321
299.63788424877463967
299.62544144955978709
299.61937585159142827
299.61954869779754063
299.6241751319546438
299.63035013525978911
299.63505506314572813
299.63631234453936258
299.6338413731291439
299.62889140720523073
299.62369391754685921
299.62055366842560034
299.62106956219537324
299.62556734008057902
299.63306090619698807
299.64157997976940351
299.64876772500156221
299.65269548678094225
299.65232958825691867
299.64798379358097691
299.6413982798815141
299.63539999034287575
299.63301765923682751
299.63635466000977203
299.64568407978333653
299.65923432562550488
299.67382582262882806
299.68608415740180817
299.69368818914995245
299.69603274532005344
299.69413444042942274
299.6898332951602697
299.68482107931669134
299.67997699031008096
299.6754597552173891
299.67132800572409224
299.66836994359141499
299.66831974032299968
299.67331828285171014
299.68480970634374216
299.70266042699427089
299.72478040646234376
299.74757391969376386
299.76695075273278235
299.77961145853720382
299.78393806166599234
299.78029656480612175
299.77080890919546619
299.75873419310630652
299.74754822534788445
299.74005541282241438
299.73789275931625298
299.74130217946316179
299.74916294899662716
299.75924842830187345
299.76874503705761299
299.77499957419371412
299.77617571465236779
299.77169345326080929
299.76222952561238344
299.74933571423053991
299.73480345048034224
299.72003123897025034
299.70565259028558103
299.69163365737887261
299.67781187168213819
299.66446004397107572
299.65258471697620735
299.64373719082465186
299.63944961031478442
299.64057362088175296
299.64686496190512344
299.6568386449377499
299.66820029402663295
299.67861204908376749
299.68646181284270824
299.69129236691571805
299.69377270301191629
299.69525868539375324
299.69724230217553895
299.70078388427685923
299.70625690528800078
299.71342148988571807
299.72159467303129077
299.73012453752897954
299.73853451755616106
299.74659286439919015
299.75411151236232854
299.76080693414303369
299.76637127658165127
299.77065405711169888
299.77371937715889771
299.77591881117172079
299.77762358400588028
299.77891478370651157
299.77941323102038496
299.77821976329494191
299.77397877613731225
299.76537688540111048
299.75183001459538445
299.73402738616584884
299.71393537280982855
299.69452850749200934
299.67906366655063266
299.67031638091060586
299.66968256757479594
299.67665743966153968
299.68894363711331152
299.70322872431597716
299.71615510927460946
299.72541179060220884
299.73032678499316717
299.73172954557998082
299.73143147378874573
299.73136487450716459
299.73286832934047652
299.73616045241010397
299.7404126241305562
299.74423603578662778
299.74621921846681971
299.74539957653240663
299.74146209648688455
299.73462875234162084
299.72550117005442871
299.71478923692052376
299.70307834981832684
299.69075048286140373
299.67812039192864404
299.66558040835377597
299.65370257658497621
299.64326878241439545
299.63525189219240019
299.63061714476629049
299.62995532513099306
299.63308873625783235
299.6390644786855546
299.64627156120252494
299.65275548991201049
299.65689864953458255
299.65790865379079833
299.65587420471848645
299.65156601684498128
299.64623915235210916
299.6412130469133217
299.6375338298277029
299.63580254348767085
299.6362814117788389
299.63904078164290468
299.64396517445265999
299.65086733674650077
299.65951720431127114
299.66938312853790194
299.67966050502167263
299.68946752177498638
299.69799650356878828
299.70475242909753888
299.70967514700203083
299.71318402738330633
299.71609198033110033
299.71936749621352192
299.7237286783264949
299.7293684001367069
299.73604718028389016
299.74322077580160339
299.75022991843843556
299.75644680758216509
299.76150161719425569
299.76546131586127331
299.76880763405159769
299.77226656714202591
299.77657822246590058
299.7822955456906584
299.78958015953020322
299.79813015342335802
299.80731244798329271
299.81629772508790666
299.82426635586460861
299.83057634109906076
299.83485703386872956
299.83698227917625445
299.83702541651263118
299.83520457051810126
299.83187827028035599
299.827557848447384
299.82293568694490205
299.81882388306837584
299.8161152097115405
299.81572378715213745
299.81836838181197891
299.84156519543125796
299.92756229055538597
300.01260537029935449
300.18957439481488336
300.0077327651071073
299.7196345740144352
299.67855586127518563
299.83896144193897726
299.92119241374814465
299.84478957791861831
299.71451501495340608
299.65034409885555533
299.76777055492300406
300.05013866309019477
300.27251805807577512
300.23583048810303353
300.00888826986340518
299.78995779893079998
299.72059307207916845
299.77687530636609381
299.85127202208821018
299.93508138175553768
300.0780290396919554
300.23393650836686675
300.29534199381140525
300.24142794698786929
300.13681124507087361
300.02146360634316125
299.91937887552757047
299.88256191111503313
299.94562829288992134
300.06003887738637559
300.14186874217261902
300.16005578754146654
300.1493085357536188
300.13244780841716874
300.11970052707636114
300.14327233974836417
300.21453943200720005
300.29991277141476758
300.35915768157474304
300.38848451445710452
300.39101628245543907
300.35083464340607406
300.27411205082023571
300.20919290636362575
300.19941879778258453
300.2432983142468288
300.31744885821802882
300.40864297344489842
300.5034867573879751
300.57015306980991909
300.58250782878963037
300.55868936689097382
300.53912491806664775
300.55022017483332775
300.59824134726511602
300.67339552599491981
300.76239153168023677
300.8365024082538639
300.86157821468486873
300.82324452571236861
300.73358216258327502
300.63229480700454133
300.56845792940049478
300.57596033863279672
300.65833507030419014
300.78618455639121976
300.91011145668818472
300.97834251794711236
300.97396633450563286
300.92804741054243323
300.89134363426103391
300.90488037951490696
300.97833256981760996
301.09731797065194314
301.229364100664327
301.33661614570922893
301.38989762280840523
301.37871434185814223
301.3133590078585371
301.21479361010284492
301.115074237354861
301.05354293633911311
301.05826393696850118
301.12690735930931396
301.22241395311925771
301.29185998669129276
301.29423507022966078
301.23700596633563009
301.16553679320895753
301.14242623666723375
301.20786981692873496
301.34539423860201168
301.49306350431123747
301.58559921933408532
301.59395246213659902
301.53305204098069225
301.44315470872811602
301.36412986914842804
301.32355048351735149
301.32933458188273335
301.36668296248569732
301.40378431113930446
301.40687823434262782
301.3629835174301661
301.28970394774137276
301.22516618686461243
301.20499641414988901
301.24292171022926823
301.3249882028136426
301.42096622374180015
301.50150753110170854
301.54883706098269158
301.55985733198667731
301.54191224514175929
301.50819211761501037
301.47283540861337769
301.44658492720128606
301.43046751645835002
301.41796144963848292
301.40292290142241427
301.38644895746614338
301.3768488514249384
301.38155813259521665
301.3989561128938135
301.41790549473563487
301.42803727784666989
301.42883944429064513
301.42686429863641706
301.42758047242716657
301.43001058801712588
301.42965466178208089
301.42454785534681605
301.41806090561908604
301.41540035267320263
301.41647058577353846
301.41554624473957347
301.40289005355344898
301.37058804264336231
301.31756547289268156
301.25081360831632082
301.18309203847536537
301.12971679454471996
301.10520332758983386
301.1196207822258657
301.17550362769435424
301.26578860530617021
301.37507683914543577
301.48289399872311378
301.57081755305347315
301.62718057838139885
301.64529529178599887
301.62072185889104503
301.54973846743911281
301.43476271243929432
301.29021745602437932
301.14191584704201432
301.02173234300346394
300.9577310872323892
300.96325586339952451
301.03111415304562115
301.13807129748079205
301.25399112958962178
301.35361756580834935
301.42292909507955301
301.45867747117029012
301.46426779586511202
301.44574978331229431
301.40734111401201289
301.35739505676474437
301.30797122074562822
301.27514967045533467
301.27393506587145566
301.31177316668333788
301.38481778612271
301.47998139312437615
301.58064396215098668
301.67205067807026353
301.74429740432333347
301.79113935337221619
301.80727149689607813
301.78743002756687019
301.72736987835037326
301.62629018770888933
301.48841817886932404
301.3226505719280226
301.13933951925145038
300.94902892638634739
299.65249626916414627
299.65842872158788168
299.66043250545970977
299.66263768233568499
299.66815523267183607
299.67730988245841672
299.68752890376902087
299.69490103051344931
299.69661215565969314
299.69253696619404082
299.68530418428292705
299.67909559798948749
299.67747431679862302
299.68151887165475955
299.68957840821042282
299.69858318390629393
299.70593112832807492
299.71067045976195686
299.7136289632289845
299.7166362909598547
299.72129865944867788
299.72846464598433158
299.73814373676987088
299.74991156148689697
299.76347477720605639
299.77888219634644429
299.79651093332500977
299.81673481227261391
299.83904916042655486
299.86129164645689116
299.8797243725558701
299.8901955417347267
299.88992232200558874
299.87902600930908648
299.86094342866090301
299.84102807745938435
299.82459634893405109
299.81505641845967602
299.81281843588214997
299.81544841863683359
299.81905135353673586
299.82007246516354826
299.81691269489522256
299.81030096008095143
299.80251916315370408
299.79596133274486647
299.79194800054540337
299.79018329986280378
299.78910061856248603
299.78700834286223653
299.78324353953502168
299.77871149632085235
299.77531910088981704
299.77454873974659222
299.77638752876720218
299.77912466592778173
299.78020044196455274
299.7774806506346863
299.77012896971893952
299.75878108684787549
299.74480825994936595
299.72936025962695794
299.71285347054828208
299.69515460181435174
299.67639036791115359
299.65766458589178001
299.64104415880467513
299.62900812209613832
299.62359622067344844
299.62542991262142777
299.63332686379538927
299.64437520257860115
299.65472010509552092
299.66098628068601784
299.66143952260500782
299.65640897853103297
299.64801007761377605
299.63918505683153626
299.63270533157458431
299.63031095422468297
299.63236541656851841
299.63786294516910402
299.64484894188638009
299.65103021540835471
299.6544828515569634
299.6543511381256053
299.65117176452309877
299.64687244254059806
299.64409171975205481
299.64510451301947569
299.65088322421314615
299.66060865838966265
299.67204990683137567
299.68249638349135466
299.68981553378375793
299.69308485282152787
299.69262834064647905
299.68943502831604064
299.68459014571794796
299.67893043086536409
299.6730910204245788
299.66786248749690458
299.66453693259438751
299.66486060509907929
299.67054637872291778
299.68240436018419359
299.69972944386938707
299.72032163073254196
299.74097330326401334
299.75835080627160778
299.76971045158938978
299.773700285759503
299.77063945272453793
299.76232385547490367
299.75150636894142053
299.74114732945054129
299.73374797965340122
299.73086694122190465
299.73279651575768412
299.73852138260485845
299.74604028080938178
299.75289162415180044
299.75688228238448119
299.7567163878379688
299.75225488899593529
299.7442762608768021
299.7339622952249556
299.72241361682927163
299.71033127387164541
299.69787546220646846
299.68487837779690608
299.6712535431172455
299.65747533512262635
299.64483293772553907
299.6350611501907224
299.6296218023026654
299.62902244492397585
299.63256547331144475
299.63856039944630538
299.64496183246762939
299.6501052400266758
299.65326928081492497
299.65485320441291606
299.65613077645519979
299.65870252826215392
299.66382363964862634
299.67203078916691084
299.6829674666308847
299.69552957375066171
299.70823837880413976
299.71983708822375547
299.72964570001710172
299.73757615829435963
299.74394275221322914
299.74919231687795218
299.75381773347339731
299.75818789732005598
299.76258239350090662
299.76719770188702796
299.77201241224554451
299.77667041434193607
299.7802607653997029
299.78125985346997595
299.77794787684848643
299.76893461987407363
299.75385179918595213
299.73376852701136386
299.71125609912064647
299.6899468470879242
299.67375017771848889
299.66567410506985425
299.66691487388129644
299.67646272171663213
299.69143319146866133
299.7079478300273081
299.72240506672613947
299.73254595548439738
299.73785530281668343
299.73946314127937285
299.7395123143986666
299.74017130703191469
299.74272905579869075
299.74718077662976157
299.75234655033619902
299.75644258988728552
299.75772650162309674
299.7551144589423302
299.74846695848953004
299.73844231034576069
299.72612914412866303
299.71257743748805069
299.69848820426125258
299.68425549731892943
299.67007110850823892
299.65616942929221977
299.64312751163015491
299.63193680592490864
299.6238946548001536
299.62015521247462857
299.62122959809892109
299.62663300222902762
299.63486555486417728
299.64378778493528444
299.65120958473744395
299.65531913158565658
299.65530521088453497
299.65162752226086695
299.64566214751840789
299.63908992966923961
299.63352852756838729
299.63010817526486562
299.6294416311145028
299.63153448717349647
299.6361211991531377
299.64283201297081405
299.6512629410854629
299.66095626527533113
299.67127715991745163
299.68142685760903987
299.69054736618699053
299.69792034077369181
299.70324275385337387
299.70662799623534056
299.70869547804096555
299.71030038527965189
299.71237818507864858
299.71563209354019364
299.72018280616418906
299.72566350269067925
299.73140860953157016
299.73672380905981072
299.74115735490198631
299.74459507542815118
299.74735092350044852
299.75008254123167717
299.75355381835618118
299.75844722138612042
299.76517259152927863
299.77371827339862875
299.78361107408215958
299.7940251359008812
299.80395708016249046
299.81248827564252224
299.81898347311306452
299.82318359221909532
299.82515345786839589
299.82514797668920892
299.82350820723081597
299.82062363460926235
299.81700019789684575
299.81327517850718323
299.81023032850418986
299.80867650352928422
299.80942638185126725
299.81312450807860159
300.12245052488731289
300.04531062648618445
299.78632842738431918
299.72528427609984192
299.79063688848032143
299.78146421381808295
299.8263583211469836
299.99775958170590684
300.09308415682460236
299.9619126577280781
299.74940916066520913
299.67567295929876536
299.80990580262260892
300.08753549626027279
300.30839281665214457
300.28551837917063949
300.05664579915986678
299.82164777959701496
299.73917910598009939
299.79836135201765046
299.88991148304666012
299.97065947964534871
300.08615580553669133
300.21958256826940215
300.27362401740111864
300.2253790137644387
300.13847628572040094
300.04986743561573803
299.96330164491888581
299.92081689804695088
299.97134220840257512
300.08650727016504334
300.16839830226410868
300.17721675804580173
300.14950436438306269
300.11077244761099792
300.07778600800293134
300.09733002253597078
300.19012915566321453
300.30210279269675766
300.37073808079310311
300.3934659125681037
300.3901456240156449
300.35066144451428727
300.27627984040589126
300.21602929200270182
300.21702855222133621
300.27588402131812018
300.36587477831221804
300.47511560365018113
300.58319328000709447
300.64308992770537543
300.6273414047553274
300.56477163237889272
300.51701860419774448
300.52303557954809321
300.5817498921051083
300.67148131426893087
300.7670607373081566
300.84329604117169765
300.87063875904442511
300.83335714123131766
300.74895680881331828
300.66059694882142139
300.6149072023092117
300.63880217703814424
300.72389007441034892
300.83313296519969526
300.92333248852776251
300.96265687853502868
300.95112329288127739
300.91723477268567422
300.8931342891866052
300.90901822508141095
300.9803337702263093
301.10027230681680521
301.23460972487248455
301.33379856893054694
301.36789390113199261
301.33648369471774231
301.26114604629714222
301.17020872532742715
301.09348837868424198
301.05944462557198449
301.0842072542374126
301.16031422049047706
301.25290194088853468
301.31772959848711935
301.32214899802022501
301.26892329435793272
301.19712874999845553
301.16918031573834469
301.22590646571842399
301.35669772439644021
301.50162942501737007
301.59219500539131786
301.59374157555049578
301.5206798552710552
301.41524191239722086
301.32675301360671938
301.29087274147298103
301.31498591319319758
301.37630025039806014
301.43305866990135655
301.44736982237589018
301.4086066799924879
301.33776958418746972
301.27326816250069896
301.25057057108818981
301.28171785844074293
301.35400635603974706
301.43741344062942744
301.50346371360080866
301.53787737197455954
301.54199850161904806
301.52476108094970186
301.49725536559191141
301.47004291273094623
301.45168080690348233
301.44338485151962459
301.4366949228433441
301.42351684448465221
301.40406301111164566
301.387474081751634
301.38490912741070815
301.39864867222729572
301.41819065225678287
301.43183487282345823
301.43560656517104235
301.4336280368333405
301.43035847776906166
301.42602173509294516
301.41848437772506486
301.40835989405172768
301.401367524184991
301.40325215686397087
301.41291445753819289
301.4190381460723529
301.40950421964851103
301.37653913540884787
301.32285803460484885
301.25994649748469101
301.20181287457739927
301.16062628324749539
301.14513052194087095
301.16080532381226931
301.20860300476124394
301.28454882951939453
301.37733092075990271
301.46955733746580108
301.54598365335561994
301.59457173077595371
301.60845327280765105
301.58261003806023837
301.51690704815621302
301.41400160174237044
301.28749915359293254
301.16142721371028301
301.06160746460113842
301.0091347508920876
301.01297293611952455
301.06649624881134741
301.15017154035160729
301.24059735260618709
301.31738355571656029
301.36969517625504977
301.39470917080251411
301.39438265646788295
301.37445718937817674
301.34022795902876624
301.30109179322528234
301.27045411057457613
301.26222564752470134
301.28686979438640492
301.3458837621419093
301.43031550919494066
301.52435763138237235
301.61264523489984413
301.68482710622379273
301.73672672299233
301.76744485111692029
301.7749583956546644
301.75451149638649895
301.70028040860546525
301.60901301256757279
301.48137758633652084
301.3217239957266429
301.13737937763488617
300.93726284880659705
299.68542702272475253
299.69054761061931913
299.68933793623006068
299.68560957170097936
299.68346169469390361
299.68517332359220973
299.69003206524649841
299.69492233626357347
299.69643460164184035
299.69300674091027759
299.68599849479181785
299.67905052085296802
299.6762719086725042
299.68006758087290109
299.68990248396386278
299.70276360762341028
299.71494449052016762
299.72393820527804564
299.72933934066060147
299.73277926793400638
299.73672266879117387
299.7432372570696657
299.75335711900845581
299.76690102440920782
299.78299165116959557
299.80078039475563401
299.81977828489215199
299.83977978108197249
299.86023392675821242
299.87949305784741227
299.89470901458457774
299.9028501120357646
299.90210052952375008
299.8929628899854265
299.87837375823210095
299.86254052991125718
299.84931202087517477
299.84089172886706365
299.83731876029418117
299.83670014127187642
299.83611768953966248
299.8331123535625693
299.82696027134858241
299.8189236399496167
299.81141394509211295
299.80673584654425667
299.80574621148087999
299.80729577458026824
299.8087715400732236
299.80758306720923656
299.80266577053930632
299.79516432126814607
299.78771675668292573
299.7827489050378631
299.78092420468504997
299.780789155917887
299.77970155443506428
299.77521828081336253
299.76628141523940485
299.7535270877905873
299.73861423034355767
299.723106860000712
299.70777962281124474
299.69261277778787189
299.6774117029905824
299.66252617880815023
299.64930500902698896
299.63987352838836387
299.63639310770543034
299.64000993788056348
299.65007857869619556
299.66406896625863965
299.67811588012335733
299.68824086403799356
299.69162668976684927
299.68755306481364187
299.67752750249678684
299.66461460755226653
299.65233551849252081
299.64362369677303377
299.64015420398430933
299.64199367777621319
299.64765892904927114
299.65470231904464526
299.66061059377818765
299.66359075345212659
299.66331847337312411
299.66096557567590253
299.65850499208244173
299.657995955470426
299.66069703623105625
299.6664134248441087
299.67378395188268314
299.68101066734709548
299.68656221362539327
299.68950347192213712
299.68966413600196574
299.68740911381911474
299.68331199825269096
299.67802598276330173
299.67249316597684583
299.66810067460750133
299.66641130015068484
299.66872617527496914
299.6756488981090456
299.68690651649808387
299.70126446957505095
299.71686733565263694
299.73166563404163298
299.74384283053933586
299.75204269043462091
299.75547902101624231
299.7541459306444267
299.7488743437767198
299.74127983056325775
299.73340396020176968
299.72719866235149766
299.72409955067627152
299.72460194008709777
299.72806204889093351
299.73288128950935061
299.73709525153242339
299.73905979759928186
299.73794947139646183
299.73388939585328217
299.72757357903589082
299.71975645575594172
299.71088709480926582
299.70103779516688292
299.69007691635835045
299.67794744922747441
299.66492261779370665
299.65176319287144224
299.639697400689613
299.6301632167110256
299.6242504323834055
299.62213549815510305
299.62288258319961187
299.62484005474618698
299.62630402991499068
299.6262208925897994
299.62463655837802889
299.62269939576259503
299.6221687415671795
299.62483974571188128
299.63188576548236597
299.64347575481497188
299.6586970775122154
299.67581568369371325
299.6927930999347609
299.70781677850180813
299.71978061350500866
299.72849523686227258
299.73459983205179924
299.73911014945150555
299.74305013792837826
299.74721736093272284
299.75209842445974573
299.75793150388216191
299.76457345979940783
299.77133315009871239
299.77688506394474643
299.77936176814051805
299.77694961588463229
299.76835783088040444
299.75339091963201099
299.7334093018005774
299.71138252883366704
299.69120243033006545
299.67676027940461836
299.67083937059220489
299.67428227534298912
299.68571290233393256
299.70195199135929442
299.71898632074885427
299.73336165363895134
299.74313228299939738
299.74822869982699558
299.75014860676117223
299.75112725322026108
299.75310439674166219
299.75687139738363385
299.76184916739993014
299.76641534932065269
299.76849720997807935
299.76644712492554845
299.7596091591473737
299.74844370146217898
299.73420262381097245
299.71837168964594866
299.7021982655097645
299.68643715980329034
299.67131072498375488
299.65683468544006018
299.64316335885791887
299.63092614392121504
299.62125438734176441
299.6154887779361502
299.61463448311519642
299.61888409829890634
299.62730405903278097
299.637866263814999
299.64800529660357142
299.65535968196184058
299.65835764407052011
299.6565319759354793
299.65075009573092757
299.6427843212122184
299.63477484208607393
299.62855994920920466
299.62527477297373935
299.6253489454186365
299.62861575806260817
299.63451300339096406
299.64240913612428585
299.65166711721417414
299.66167489244344324
299.6718441387661187
299.68150648043058482
299.68992237958190117
299.69656379080362285
299.70117200267719682
299.7039440197883664
299.70543808848958633
299.70647902088023784
299.70786229216719221
299.71012716046215019
299.71335704009760548
299.71716737648517892
299.7209683318639577
299.72423167410562428
299.72667724967573122
299.72841411525530475
299.7299455595755262
299.73201707200183819
299.73535300579317209
299.74039778065724704
299.74726774612020108
299.75579297111096366
299.76546642326576375
299.77552377043724618
299.78510583630850306
299.79344554665129863
299.80005842693645945
299.80475643637788608
299.80765444834275968
299.80899068411480357
299.80900029304473264
299.80790877989443288
299.80606440365858134
299.80398556518582609
299.80235929604901912
299.80195808668872814
299.8035583347034958
299.80786152742786044
299.81525332800748629
300.24382984445020384
299.94709955355313014
299.87717688623331469
299.87188790208847422
299.99469603903258985
300.08047749699858286
300.11510141197169332
300.18833995142136928
300.22070558427753895