/*--------------------------------*- C++ -*----------------------------------*\
  =========                 |
  \\      /  F ield         | OpenFOAM: The Open Source CFD Toolbox
   \\    /   O peration     | Website:  https://openfoam.org
    \\  /    A nd           | Version:  12
     \\/     M anipulation  |
\*---------------------------------------------------------------------------*/
FoamFile
{
    format      ascii;
    class       volScalarField;
    location    "0.0071";
    object      alphat;
}
// * * * * * * * * * * * * * * * * * * * * * * * * * * * * * * * * * * * * * //

dimensions      [1 -1 -1 0 0 0 0];

internalField   nonuniform List<scalar> 
106891
(
9.0204953209929634214e-06
9.0118461506753467442e-06
9.0021229262265416198e-06
8.9940597842817382077e-06
8.9849965953033106243e-06
8.9776202025297179298e-06
8.9690256046452537504e-06
8.9621305658988738454e-06
8.9539500689100241202e-06
8.9473560934154433544e-06
8.9388239025734103491e-06
1.1357171093665166861e-05
1.1385878074380257222e-05
1.1449776058030682307e-05
1.1505723948663999144e-05
1.1547963234224368494e-05
1.15758786576409714e-05
1.1591129471342736363e-05
1.1597478043447576022e-05
1.1599316192768323607e-05
1.1600732059107088777e-05
1.1605057166212261283e-05
1.161807754446359347e-05
1.1634258868038869513e-05
1.1650334434017959901e-05
1.1666976535774854269e-05
1.1685780742326635188e-05
1.1708789306994447582e-05
1.1736916723343424439e-05
1.1770085586457528436e-05
1.1806429656944234375e-05
1.1842615607110670243e-05
1.1875320490760595817e-05
1.1901807048415248867e-05
1.1919992160179211578e-05
1.1929378784331195589e-05
1.1930555049385933259e-05
1.1925661925214350864e-05
1.1917641330491821888e-05
1.1909888403105918571e-05
1.1905649280856632399e-05
1.1910938426144517389e-05
1.1930714568239044853e-05
1.1958605198462816005e-05
1.1992335565746433903e-05
1.2028314642125707376e-05
1.2063386628835817143e-05
1.209479434949427798e-05
1.2121038660856467756e-05
9.5813856066286034313e-06
9.5712954531030302024e-06
9.562611598504992225e-06
9.5519852127486012803e-06
9.5427004710005453172e-06
9.531676360238150461e-06
9.5220392155232267659e-06
9.5108647041217590177e-06
9.5013299233278841294e-06
9.490316609717021023e-06
9.4810935818305438214e-06
9.4705204088858242187e-06
9.4618082636642582647e-06
9.4518235051849182018e-06
9.4438083609890667651e-06
9.4343700319317007336e-06
9.4269065236829723589e-06
9.4179506266572108697e-06
9.4108894873265299872e-06
9.4015166051056907537e-06
1.2052406776314544012e-05
1.2099848333157363963e-05
1.2132327391127693413e-05
1.2151619603206204989e-05
1.2162602037178298639e-05
1.2170940476395820706e-05
1.2181485866780311677e-05
1.2196483484341378678e-05
1.2214979752079481519e-05
1.2234528142796310225e-05
1.2252570409614673948e-05
1.2267598123371553696e-05
1.2280223493929700142e-05
1.229289152645274635e-05
1.2308692984591585126e-05
1.2330120762841215146e-05
1.2358509367511430994e-05
1.2392885714097826399e-05
1.243119154857955257e-05
1.2470088468085837826e-05
1.2505821122314841239e-05
1.2535755735725119867e-05
1.2558042018747731503e-05
1.2571487943152351402e-05
1.2576286479292002703e-05
1.2573407486165290032e-05
1.2565186084812751316e-05
1.2554503854958242907e-05
1.2544309421699746291e-05
1.2536740291977182429e-05
1.2535371496604713149e-05
1.2549387845605096967e-05
1.2595299082611782445e-05
1.2648092886243005178e-05
1.2697031942534985776e-05
1.2738852430216336174e-05
1.0082422531894819065e-05
1.0071424472442786136e-05
1.0062100889927608571e-05
1.0050577001027175217e-05
1.0040702043801997222e-05
1.0028778847614660093e-05
1.0018530068241464636e-05
1.0006464310958891438e-05
9.9963436754418433483e-06
9.9844427593054420512e-06
9.974604101205074004e-06
9.9631396386356875934e-06
9.9537455366259354277e-06
9.9427841249538500716e-06
9.9340286477567844837e-06
9.9236159460261963824e-06
9.9154857996097129746e-06
9.9056751366924361947e-06
9.898048797868256858e-06
9.8877090822112423087e-06
1.2678808017585145839e-05
1.2697845511064381519e-05
1.2726322651952991398e-05
1.2752860582512497986e-05
1.2778653132575038776e-05
1.2805440154918123582e-05
1.2835047358333353192e-05
1.2866968270201597333e-05
1.2899848091478893579e-05
1.2930361724503462375e-05
1.2956141886886204869e-05
1.2975005524632289339e-05
1.2987788621760923253e-05
1.2996993003980497768e-05
1.300676905898024319e-05
1.3020604767780714014e-05
1.304026017228542411e-05
1.3065833861375112166e-05
1.3094785972816454963e-05
1.3124821114199063159e-05
1.3152750026086568749e-05
1.3176846608192327589e-05
1.3195617075962944031e-05
1.320935784662102156e-05
1.3219392318070928308e-05
1.3227523016200653255e-05
1.3236329840727557728e-05
1.3247859100232305677e-05
1.3264290376680068381e-05
1.3285736941593158305e-05
1.3311681509424995933e-05
1.3340195869621704322e-05
1.3368707302036946755e-05
1.3395235216282980938e-05
1.3417864840209756949e-05
1.3436381235312326056e-05
1.0597296920419527799e-05
1.058725605583048678e-05
1.0574716266215134595e-05
1.05641586215826919e-05
1.0551288316613836795e-05
1.0540392062242520061e-05
1.0527382050289678595e-05
1.0516634891184124494e-05
1.0503836447141990559e-05
1.0493363961021597022e-05
1.0480951305460890077e-05
1.0470896619575538244e-05
1.0458989531454509806e-05
1.0449542920170481808e-05
1.0438133774688150712e-05
1.0429265013345552455e-05
1.0418459189489977587e-05
1.0410105965435880623e-05
1.0398608673513420837e-05
1.3358093255903707758e-05
1.3368823671462764393e-05
1.3377192847981974193e-05
1.3385982500308117422e-05
1.3401548260386335619e-05
1.3428024108964390008e-05
1.3466142028362865641e-05
1.3512370782243589417e-05
1.3560616536711407807e-05
1.3604214964524928959e-05
1.3638530660909547996e-05
1.3661250743069669e-05
1.3672865172936291022e-05
1.3675584698480948862e-05
1.3673436093235291972e-05
1.367065391088753481e-05
1.3671648477388679792e-05
1.3684860283146330098e-05
1.3725859207838478012e-05
1.3777400928363639276e-05
1.3829971763963925079e-05
1.387817636864743238e-05
1.3918194004832719631e-05
1.3947950656824347558e-05
1.3968380853702574718e-05
1.3981124073669582336e-05
1.3990182069559671486e-05
1.3999021837558484022e-05
1.4010590985419086457e-05
1.4026359294214051169e-05
1.4045772926632297913e-05
1.4066769836752844575e-05
1.408702247870615653e-05
1.410469082593179119e-05
1.1163378930124829932e-05
1.1150236585749504335e-05
1.1139391300979743332e-05
1.1125788523861766487e-05
1.1114404965110713091e-05
1.1100408787215009423e-05
1.1088723438984766353e-05
1.1074652310708550727e-05
1.1063147509552297962e-05
1.1049351405916290009e-05
1.1038216195183153114e-05
1.1024870551671575686e-05
1.1014180278834744372e-05
1.1001324816424244333e-05
1.0991219582509846066e-05
1.0978793406285222923e-05
1.0969177272196653603e-05
1.0957238672397846702e-05
1.0948001456359922329e-05
1.0935090383687177582e-05
1.4068360935153673922e-05
1.4098875008424084616e-05
1.4120437373703146071e-05
1.4139915608031897358e-05
1.4162924913025282678e-05
1.4193456928872491543e-05
1.4231039438551240477e-05
1.4273046180407985054e-05
1.431492883076583099e-05
1.4352342525765464303e-05
1.4382581749480913036e-05
1.4404643666843931868e-05
1.4420480711441936321e-05
1.4432400490383096869e-05
1.444421739306153399e-05
1.4458645574966173512e-05
1.4478358235984068857e-05
1.4503775648599682088e-05
1.4534122960981046014e-05
1.456721209999972673e-05
1.4598932003570102558e-05
1.4626702467503992886e-05
1.4648208561830828176e-05
1.4663470784644182306e-05
1.4673694577345563106e-05
1.4681696551896413546e-05
1.4690946906850064403e-05
1.4703844947899499262e-05
1.4723302422041056347e-05
1.4749183268504712245e-05
1.4780959713302901833e-05
1.4815589097567669432e-05
1.4849000748533291316e-05
1.1732039418980380624e-05
1.1720201057846361202e-05
1.1705316521160700444e-05
1.1692978895600516603e-05
1.1677760646391618902e-05
1.1665120596528002315e-05
1.1649806324398791904e-05
1.1637371687644733586e-05
1.1622436221517568354e-05
1.161052401333387648e-05
1.1596199017553253299e-05
1.158487137934209657e-05
1.157108298487288964e-05
1.1560319928411673642e-05
1.1546808136706490704e-05
1.1536387705649388786e-05
1.1523124099295147056e-05
1.1512851362187382203e-05
1.1498277380989936077e-05
1.4854165036292439633e-05
1.4870862053630410718e-05
1.4889316130455669597e-05
1.4913142629492403908e-05
1.4945237818288982482e-05
1.4984668254724779104e-05
1.5029311570510536062e-05
1.5075043029280841186e-05
1.5117705003053402623e-05
1.5153916710937196776e-05
1.5181694071979185375e-05
1.5201403622787684376e-05
1.521402458165206932e-05
1.5222875924617742705e-05
1.5230743859344986877e-05
1.5241558562410586656e-05
1.5257240430444438743e-05
1.5278812904575838781e-05
1.5305625098966882001e-05
1.5334768041843092255e-05
1.5363787487403325117e-05
1.5390319212152855222e-05
1.5414412800593338128e-05
1.5435785989621590448e-05
1.5455556433986693141e-05
1.5474818069196508949e-05
1.5494053693362125291e-05
1.5514891961441502639e-05
1.5537603593953719198e-05
1.5562465433173963567e-05
1.5588409363023609231e-05
1.5613488114462766677e-05
1.2344599619600393823e-05
1.2331661640755895378e-05
1.2315353057691428058e-05
1.2301870275855548772e-05
1.2285192511936622104e-05
1.2271439309783822394e-05
1.2254735564968746928e-05
1.2241255204981832031e-05
1.2225062855334695432e-05
1.2212277992480110716e-05
1.219685426259993518e-05
1.2184822194089672454e-05
1.2170034326905064607e-05
1.2158531321250476263e-05
1.2143859599930016322e-05
1.2132567282976144699e-05
1.2117837758094691727e-05
1.2106445137272471419e-05
1.2090075814272500894e-05
1.5554269155145657811e-05
1.5565028247390606412e-05
1.5596720725103317484e-05
1.5644258435398326955e-05
1.5699839142097039396e-05
1.576173657885683791e-05
1.5825475439824871057e-05
1.5886301995360535745e-05
1.5939170891449883945e-05
1.5980515594211449238e-05
1.6008847567022374596e-05
1.6025690837072375838e-05
1.6033479492312307434e-05
1.6037063643311997478e-05
1.6041185378494287711e-05
1.6049498336349994149e-05
1.6064298022452287961e-05
1.6085132107290970276e-05
1.6111709737458096913e-05
1.614147506396405163e-05
1.6173751332953306898e-05
1.6207698259563572089e-05
1.6243634040275160797e-05
1.6280062973208018199e-05
1.6314607235751065519e-05
1.6346583600192374864e-05
1.6374240752680767461e-05
1.63981666208533226e-05
1.6418463096580767691e-05
1.643589137843874391e-05
1.2976686370834734975e-05
1.2958850900951036637e-05
1.2944187930762420002e-05
1.2926026590323921167e-05
1.2911168554953693249e-05
1.2893109613558017146e-05
1.2878612814923349697e-05
1.2861171765675753314e-05
1.2847494503660119341e-05
1.2830850000068229501e-05
1.2817996412549466077e-05
1.2802056638688085775e-05
1.2789639949845642419e-05
1.2773720817191272541e-05
1.2761512518772815506e-05
1.2745406646714371228e-05
1.2733021980358378374e-05
1.2715100609512997474e-05
1.6358790401184642371e-05
1.6415985870710695185e-05
1.6472044052681357679e-05
1.6530131139857405623e-05
1.6591133237845494345e-05
1.665417988817968325e-05
1.6715801112606402658e-05
1.6771168768176550291e-05
1.6814604421762547091e-05
1.6842570658620983123e-05
1.6855286190482852288e-05
1.6856279240282676866e-05
1.6852377422822694563e-05
1.6851173517276242942e-05
1.6858889148245702745e-05
1.6877487302370792566e-05
1.6906761859815228857e-05
1.6943617968074844499e-05
1.6985161870636859919e-05
1.7027704836685335848e-05
1.7069204254386542171e-05
1.7108680186318018628e-05
1.7144418518368297722e-05
1.7175506602461421352e-05
1.7201262241579637872e-05
1.7222830408626775436e-05
1.7240940617457693219e-05
1.7257393047765146054e-05
1.3672977365804805125e-05
1.3654206295035377318e-05
1.3638465073634333433e-05
1.3619496634185612098e-05
1.3603858100443405171e-05
1.3585148380792253119e-05
1.3569996993726847535e-05
1.3551945481671720767e-05
1.3537479647866235982e-05
1.3520073790923049445e-05
1.3506315744117360767e-05
1.3489429434078255483e-05
1.3476065846620517293e-05
1.3459284726974618879e-05
1.3446210131489600835e-05
1.3429336574579013312e-05
1.3416321591143461818e-05
1.3398438467931372234e-05
1.7305153668239755209e-05
1.7341818375281877298e-05
1.7386067038306359471e-05
1.7437861139507059444e-05
1.7495314570467735126e-05
1.7553833729091715274e-05
1.7607722881886893774e-05
1.7651686661355336797e-05
1.7682811581547691398e-05
1.7701716862547294917e-05
1.7711769512184828441e-05
1.7719113809494249558e-05
1.7729288664369767346e-05
1.7746242050927823255e-05
1.7770575625026327206e-05
1.7801131166789043689e-05
1.7834728437463616949e-05
1.7868680344511914072e-05
1.7901320648526892153e-05
1.7932207479667094078e-05
1.7962199672702276949e-05
1.7991181788995075895e-05
1.8019250945993268775e-05
1.8045895717906337868e-05
1.8070937383155585382e-05
1.8094506744479094584e-05
1.811678626309838177e-05
1.4321180472094371846e-05
1.4299434961258244173e-05
1.4280803236120217706e-05
1.4259215580943140664e-05
1.4240480334549923742e-05
1.4219172627864013495e-05
1.4200504403474788028e-05
1.4179288570271393342e-05
1.4161061916437497763e-05
1.414005930522998937e-05
1.4122281111674616071e-05
1.4101690589214471787e-05
1.4084270130405324585e-05
1.4064393845832060776e-05
1.4046998878444434686e-05
1.4027474599623113676e-05
1.4010304296316497091e-05
1.7979173858492183307e-05
1.7992361257106907687e-05
1.8012682168114439274e-05
1.8042876054368572235e-05
1.8083457503929061585e-05
1.8131742635209142754e-05
1.8184482681758027875e-05
1.8237020377492701024e-05
1.8286677979571369917e-05
1.8333090544086109655e-05
1.8376651344583146039e-05
1.8420881171366708184e-05
1.8467390516985706961e-05
1.8517270824000255569e-05
1.8568456162713345078e-05
1.8616947281738906113e-05
1.8657676727445901928e-05
1.8686124789477254513e-05
1.8701313171577645572e-05
1.8703884688322291926e-05
1.8698503380935150393e-05
1.8690189872848172954e-05
1.8685616303616971e-05
1.8690543803470673973e-05
1.8708926339876717716e-05
1.8743414267575061002e-05
1.8790389706034127219e-05
1.4692002788785286422e-05
1.467230368842648018e-05
1.4644478052931258238e-05
1.4624660743342063595e-05
1.4596348622003400727e-05
1.4576097566382357386e-05
1.4547246998430826207e-05
1.4526821215802346841e-05
1.449773151270288327e-05
1.4477462144601144139e-05
1.44485209450732335e-05
1.44288515614461983e-05
1.4400513058055354617e-05
1.4381532640006865307e-05
1.4348849749252139363e-05
1.4341033653724886133e-05
1.405994911489306995e-05
1.4058289275068312248e-05
1.4055468004526537617e-05
1.4052725336737836577e-05
1.4051529174617743043e-05
1.4056798286683778104e-05
1.4084706477119651559e-05
1.4142058474061411174e-05
1.4198668463874218208e-05
1.4253360716195097091e-05
1.4306802371977734572e-05
1.4360233882508418866e-05
1.441275785639757853e-05
1.4463468534094560308e-05
1.4509970130888404422e-05
1.4550211510686785829e-05
1.4581450499952287135e-05
1.4601684946910568593e-05
1.4610320873272160494e-05
1.4609044086525859501e-05
1.4600871288840825329e-05
1.4589943564725653033e-05
1.4578373864972190641e-05
1.456685896874815249e-05
1.4557732860054923898e-05
1.4550545582660646133e-05
1.4546306146467496989e-05
1.4549433155952918076e-05
1.1416365078971152318e-05
1.1393975991358401166e-05
1.1377383553607207914e-05
1.1354514386865208338e-05
1.1337634836649547465e-05
1.1314454954046804198e-05
1.1297602706334303912e-05
1.1274359000879326429e-05
1.1257942325480569583e-05
1.1234996620686091631e-05
1.1219344932385067352e-05
1.1197060212117355567e-05
1.1182254377349890313e-05
1.1157063566364396593e-05
1.1153908227920064484e-05
1.3371802281534840893e-05
1.3384722847404289161e-05
1.3409052780556775396e-05
1.3444323155606131273e-05
1.3487317870709803706e-05
1.3532722225009906567e-05
1.3574959476339683512e-05
1.3609769282239007998e-05
1.3635419140087067687e-05
1.3652379901744164794e-05
1.366364152214641768e-05
1.3673719771087559368e-05
1.368758626391338683e-05
1.3708383535535177439e-05
1.3736796010746753623e-05
1.3770856697649344442e-05
1.3807069622384743156e-05
1.3840947936121856854e-05
1.3868438293026441783e-05
1.388728401253844024e-05
1.3896942996318957449e-05
1.3898812168007932367e-05
1.3895624764125667541e-05
1.3890280573024732896e-05
1.3885552989237349771e-05
1.3883842957196089642e-05
1.3889249361611460119e-05
1.0862738212715803302e-05
1.0848957652682433194e-05
1.0829969878879105709e-05
1.0815616720073685015e-05
1.0796023438675021895e-05
1.0781444636532818817e-05
1.0761745429959741866e-05
1.0747487182207592844e-05
1.0728153317843873519e-05
1.0714540747438830166e-05
1.0695862637703070638e-05
1.0682999008564002645e-05
1.0662949585026518687e-05
1.0654328707411587552e-05
1.2868977663439648979e-05
1.2893314787143637554e-05
1.2924965126991926236e-05
1.2959923987003124789e-05
1.2992518108706587845e-05
1.3019725207823109881e-05
1.3039517233468630707e-05
1.3053191565422597888e-05
1.3063259758936630254e-05
1.3073655310396863484e-05
1.3088817307997014679e-05
1.3111703817662525399e-05
1.3143790608671857291e-05
1.3183754037562810951e-05
1.3228113409967341558e-05
1.3271434169921344278e-05
1.3308562043606927481e-05
1.3335999740670076113e-05
1.3352036884726640542e-05
1.3358624892577199137e-05
1.3358846011791437983e-05
1.3357122634500840554e-05
1.3357777902086193992e-05
1.3363737831931491622e-05
1.3377071419878497661e-05
1.3397200977379865346e-05
1.0452645892481199965e-05
1.0434496356441952695e-05
1.0420736640849964481e-05
1.04019964471454593e-05
1.038794912488921434e-05
1.0369035488535328359e-05
1.0355276359582153979e-05
1.0336729082724478186e-05
1.0323650091308605707e-05
1.0305749426011369513e-05
1.0293387964349266789e-05
1.0274504546805963523e-05
1.0265581485204810963e-05
1.243376191690138937e-05
1.2472317647977889543e-05
1.2505471533462656094e-05
1.2530364693868574751e-05
1.2547486390082170356e-05
1.2558237334474964836e-05
1.256628668175990432e-05
1.2575073319575571999e-05
1.2587735623333792746e-05
1.2606840827002571719e-05
1.2633665855722817439e-05
1.2668027005192913562e-05
1.2707856735262159438e-05
1.2749503644334124591e-05
1.2787988784548991037e-05
1.2819347243254939744e-05
1.2841189018976446613e-05
1.2852671879324647345e-05
1.2856083410137385563e-05
1.2854630444264634724e-05
1.2852344770964603819e-05
1.285290930065251148e-05
1.285874618669266358e-05
1.2871492517366816288e-05
1.2890688241022255051e-05
1.0039695095874195054e-05
1.0026352017273031068e-05
1.0008195422563573234e-05
9.9945538416572651103e-06
9.9762196690399117385e-06
9.9628515095362354958e-06
9.9448856508227278649e-06
9.9322534207091941983e-06
9.9149623654011231471e-06
9.9030237662336607234e-06
9.8847693247606727504e-06
9.8761874425930039161e-06
1.1978724293645080922e-05
1.1992956717086734268e-05
1.2012086472659608906e-05
1.2033127317062664266e-05
1.2053168967252346193e-05
1.207086151295471461e-05
1.2086543256454958785e-05
1.2101786462853063111e-05
1.2119542460923789419e-05
1.2142536576610927501e-05
1.2172755944406994259e-05
1.2210024544429922666e-05
1.2252511043379040825e-05
1.2296516903724835672e-05
1.2337885802065955089e-05
1.2372841143042482301e-05
1.2398929404671257869e-05
1.2415557468713622356e-05
1.2423497639367247385e-05
1.2424626398118474347e-05
1.2421101404662782082e-05
1.241510735654361298e-05
1.2408443422356416888e-05
1.240307739435461695e-05
1.1581691398088879945e-05
1.1595093536547729208e-05
1.1610079145519965649e-05
1.1625175481135168235e-05
1.1639638049047053287e-05
1.1653855535985725792e-05
1.1668889977141701575e-05
1.1687137133807930735e-05
1.1710754996408712433e-05
1.1741277259142560217e-05
1.1777961130960422668e-05
1.1818539220748451842e-05
1.1859207547144165275e-05
1.189605783366435012e-05
1.1925567343413272058e-05
1.1946179072860402059e-05
1.1957628014395565928e-05
1.1961351131340611662e-05
1.1959348488721688718e-05
1.1953919359926491034e-05
1.1946992483987774325e-05
1.1940303046810448839e-05
1.1935671766161687782e-05
1.1190887073939785476e-05
1.1207763825356925323e-05
1.1221337295105247134e-05
1.1232777360988392034e-05
1.1244640756286433423e-05
1.1259435823354627462e-05
1.127914123334037098e-05
1.1304899285738217817e-05
1.133520552793733656e-05
1.1368499731400156635e-05
1.1400554043633638246e-05
1.1428524926391394373e-05
1.1450219593768459103e-05
1.1465587691699912108e-05
1.1476061884708938968e-05
1.1483727287087855357e-05
1.1490732343176178679e-05
1.1498378641197061175e-05
1.1507700058185327372e-05
1.1518694987643988202e-05
1.1531198095810285477e-05
1.0885157770634481359e-05
1.0883319400539046384e-05
1.0882299010305336305e-05
1.0887483283528534979e-05
1.0900741083575051237e-05
1.0922261963355936584e-05
1.0949375287164466239e-05
1.0978694330394888446e-05
1.1006482869767246678e-05
1.1030288152991000054e-05
1.1049177146337517982e-05
1.1063356565918830549e-05
1.1073776964890842808e-05
1.1081673191424845445e-05
1.108861101786027849e-05
1.1095958725045285167e-05
1.1104877244318552373e-05
1.0553526962023086752e-05
1.0571590601711197482e-05
1.0591866961867114487e-05
1.061172858198903696e-05
1.0628766221463551445e-05
1.0641433297095008575e-05
1.0650009263508666081e-05
1.0655305850268980515e-05
1.0659620893514061603e-05
1.066497918340605313e-05
1.0673757663781561995e-05
1.0687874629336405023e-05
1.0707603915485103916e-05
1.0167446535382909908e-05
1.0191772433860092327e-05
1.0211398218390282572e-05
1.0224703101440955867e-05
1.0231535198424331521e-05
1.0233558841370848637e-05
1.0232599355863018542e-05
1.0231658018639385976e-05
1.0233806921166239718e-05
1.0241091752884303056e-05
1.0255863629268164301e-05
1.0277691349675595743e-05
6.0967483594657268639e-06
6.1911648622294179477e-06
6.2206379405351505264e-06
6.220078891694417664e-06
6.2103383126172910633e-06
6.1800892897862336913e-06
6.0826755175657047512e-06
5.9103524791964636546e-06
5.742793157027051637e-06
5.5891490979752543564e-06
5.4608733812173465281e-06
5.3689989274294437914e-06
5.3162382941606383383e-06
5.2961388948379932532e-06
5.2939999564909511986e-06
5.3038321984341061386e-06
5.3548831485749554115e-06
5.5425949332121836886e-06
5.936498731419951725e-06
6.2448459007284322098e-06
8.4899243303795738616e-06
8.6855474530572613083e-06
8.7705120348059962762e-06
8.7885199686380701518e-06
8.7810006302707831286e-06
8.7632115673593981357e-06
8.7119675297060231709e-06
8.5683292986369509464e-06
8.3626319728634557785e-06
8.1537525279920924486e-06
7.9489285510701903909e-06
7.7695488373632618547e-06
7.6382645925273996463e-06
7.5633306910465212947e-06
7.5365283165244230661e-06
7.533942471696612171e-06
7.5519068186886068917e-06
7.6358566561394939628e-06
7.920216056383259332e-06
8.3205182838856946425e-06
8.6034100005757913288e-06
8.7686866499152391757e-06
1.4273783390119494879e-05
1.4476691775405215636e-05
1.4572443043616276594e-05
1.4588273599979774227e-05
1.4572614005392265949e-05
1.4543084416436886832e-05
1.4481407142452910877e-05
1.4342317028010910027e-05
1.4154055472653011559e-05
1.3959438329571654213e-05
1.3753793340626038996e-05
1.3554696990078207708e-05
1.339488826002007515e-05
1.3290369474148341585e-05
1.3242752251877310332e-05
1.3227836190262440451e-05
1.3233309774143675513e-05
1.3294252306527806054e-05
1.3516296511926213827e-05
1.3916759042935735691e-05
1.4230566716126635376e-05
1.4423030020447354381e-05
1.4498588397745375153e-05
1.4506989607388058266e-05
1.448980665293053234e-05
1.444203099343317863e-05
3.2149240606579399058e-05
3.2305760621492619238e-05
3.2345100537476133588e-05
3.2323424065439775195e-05
3.2259092937639352453e-05
3.2076312475511248215e-05
3.1814749488531049459e-05
3.1614416989252933966e-05
3.1471560902637803301e-05
3.1376968386638672069e-05
3.1305239077876134365e-05
3.1253608569649311876e-05
3.1222690532942106508e-05
3.1198942770138678269e-05
3.1196136022280310099e-05
3.1263172119687469017e-05
3.1539481413845518851e-05
3.2042302809171071176e-05
3.2496762567547243144e-05
3.2838645432486034906e-05
3.302398478746165929e-05
3.3083892210039317209e-05
3.3076691658336744356e-05
3.3027530542684966936e-05
3.2866630781686229123e-05
3.247509553174638948e-05
3.205291166240576133e-05
3.1690135295452734733e-05
6.8565838029649287845e-05
6.8541150338886379693e-05
6.847692535744134769e-05
6.8369305160714306671e-05
6.8139313096666302423e-05
6.785882058921193687e-05
6.7619659250141731584e-05
6.7425876210839574029e-05
6.7283521556735543406e-05
6.7177628421904978483e-05
6.7097907966789127631e-05
6.7045269544173770934e-05
6.700897913818691762e-05
6.6989808382563544075e-05
6.7028400471623835388e-05
6.719934588519557142e-05
6.740110958442973373e-05
6.7580205986736470599e-05
6.7700258703638229417e-05
6.7741624415343568958e-05
6.7718341702866717124e-05
6.7654905537666687855e-05
6.7499399629208507961e-05
6.7144765725295229609e-05
6.674280931855022499e-05
6.6376576041356165196e-05
6.6057134303391644588e-05
6.5798548396949862842e-05
6.5611159574414167441e-05
6.5492975316914378244e-05
0.00010325478620255658705
0.00010294098446530325038
0.00010262181039237530862
0.00010231675039594582141
0.00010203480280315384851
0.00010177288064897548319
0.00010152595480667895341
0.00010129200977738058418
0.00010107289253888810461
0.00010087072419931996661
0.00010068632334198123271
0.00010051854862582069235
0.00010036414319390089963
0.00010021638752180772451
0.00010006356179009988036
9.989177022279200908e-05
9.9690625798575560113e-05
9.9456978217887041772e-05
9.9194768263847232803e-05
9.8911646849482155828e-05
9.8614850726965952378e-05
9.831156236965879014e-05
9.8010412366900383652e-05
9.7722151192940136352e-05
9.7459358581375777112e-05
9.7231243864827641759e-05
9.7037202973431423928e-05
9.6872285386573493953e-05
9.672622262749484411e-05
9.6593495802295068191e-05
9.6467555961069387347e-05
9.6345208363891312806e-05
0.0001228859044030187976
0.00012255822396369702235
0.00012224049546883885794
0.00012193387700694369689
0.00012163207674520042187
0.00012132437834430170832
0.00012100699166540994454
0.0001206888027772990568
0.00012038525505310274967
0.00012010732367753658998
0.00011985702536916282635
0.00011962758069852591145
0.00011940733003797052169
0.00011918315648102777518
0.00011894298710740700378
0.00011868009928059342593
0.00011839652052478044685
0.00011810419525329658307
0.00011781838088052700375
0.00011754952310245858887
0.00011729903214633271788
0.00011706065707431926497
0.00011682802146877647737
0.00011659949571219585974
0.00011637772159411345564
0.00011616514897723095227
0.00011595955632937626268
0.00011575536618066573763
0.00011554521247230168084
0.00011532563209992499858
0.00011509722726316279644
0.00011486606170696869842
0.00011464131720553424833
0.00016230202543605467603
0.00016143024931914917914
0.0001605961245745765847
0.00015977245888442462773
0.00015893673892975563808
0.00015807224832397242858
0.00013340595049388481274
0.0001331178680445202218
0.00013284041036288541846
0.00013257366319032446757
0.00013230895853336136132
0.00013203350108546160432
0.00013174273162193917927
0.00013144746576141796285
0.0001311664782122971243
0.00013091305590736383333
0.00013068912007021445403
0.00013048678608658498246
0.00013029249626617372265
0.00013009117866545885016
0.00012987043379442998487
0.0001296245507289681847
0.00012935807714838722408
0.0001290856210647714985
0.00012882427947630997224
0.00012858378253066476363
0.00012836297062469238426
0.00012815220988220775281
0.00012794211733293262478
0.00012772992697837788362
0.00012751899729129972136
0.00012731304034173734842
0.00012711103074521150824
0.00012690791873781916274
0.00012669686724443146846
0.00012647437607931651506
0.00012624302463536720949
0.00012601103263935322599
0.00012579158349810607678
0.00012559574046814192712
0.00015717839131824864335
0.00015643517663739957431
0.00015575594473688907657
0.00015509747474661157978
0.0001544249150677405862
0.00015371590832335301673
0.00015296556664743586563
0.00012964703065857318787
0.00012935987444791854093
0.00012908588058554076655
0.00012882207007606564478
0.00012855832208431250646
0.00012828563117603413628
0.00012800774480930515579
0.00012774214300874836862
0.0001275067484583415232
0.00012730674064352119428
0.00012713227807488098101
0.00012696477641807203261
0.00012678528040262372753
0.00012657979033359553376
0.00012634321905859502758
0.00012608157346756111825
0.00012581172179834741558
0.00012555629093003516463
0.00012533333333393463353
0.00012514610770637259966
0.00012498419331053456653
0.00012483246648232497662
0.00012468119264381774883
0.00012453017885100982343
0.0001243848452701225662
0.00012424786594888995108
0.00012411628283809852534
0.00012398382841207215756
0.00012384589938442853584
0.00012370284638998655584
0.00012356032532737331979
0.00012342886059329226498
0.00012331899024003645433
0.00012323641646975986652
0.00012317569035325643886
9.3172291461131385923e-08
9.3157913985564743911e-08
9.3142855068317077493e-08
9.319622223797086994e-08
9.3232152875290448919e-08
9.3365553920684655878e-08
9.3479981996857284271e-08
9.3632303387083589654e-08
9.396718855565012335e-08
9.4199397616110066705e-08
9.4427667131806836596e-08
7.4333409649902581635e-07
7.243620116247567301e-07
7.095954749006366278e-07
6.9824178727306648957e-07
6.897416396878257964e-07
6.8371039613271262551e-07
6.7969213142343343253e-07
6.7716855089179959389e-07
6.7543507875736805566e-07
6.7401863977280330357e-07
6.7271772283575401511e-07
6.7164527146261790369e-07
6.709184180341504696e-07
6.705888479278140273e-07
6.7046104213654711514e-07
6.7077563209900715242e-07
6.7217846900632927448e-07
6.734384186336738239e-07
6.7410520666565054904e-07
6.7435597780420974358e-07
6.7434665416544309613e-07
6.7417829156964221727e-07
6.7387095421544527006e-07
6.734938557356123662e-07
6.7313200283843567132e-07
6.7294235311739479764e-07
6.7317040331889601125e-07
6.7455894486392279163e-07
6.7903239943658659567e-07
6.8426093316667714197e-07
6.8831115021604447824e-07
6.9093044080212253403e-07
6.9221249469757813623e-07
6.9241567828812412774e-07
6.9196781626447220759e-07
6.9131624750769981308e-07
9.7881817320725346674e-08
9.7918947634867404571e-08
9.7966644054811130157e-08
9.8014765780496751389e-08
9.8061592892037882839e-08
9.8098890516500953217e-08
9.8116917015025631006e-08
9.8112530226852789649e-08
9.8109586105605424299e-08
9.8084731249224024209e-08
9.8077829873216484235e-08
9.8126374510728912985e-08
9.8131738223882227072e-08
9.8219295472238125376e-08
9.8258529786044039258e-08
9.8388376661189638512e-08
9.8493599302210869852e-08
9.8638102753896856189e-08
9.8954940443194527077e-08
9.9167588834233067792e-08
9.936847503027720198e-08
8.0129464490201428787e-07
7.7279332530245488971e-07
7.4930074951626555899e-07