/*--------------------------------*- C++ -*----------------------------------*\
  =========                 |
  \\      /  F ield         | OpenFOAM: The Open Source CFD Toolbox
   \\    /   O peration     | Website:  https://openfoam.org
    \\  /    A nd           | Version:  12
     \\/     M anipulation  |
\*---------------------------------------------------------------------------*/
FoamFile
{
    format      ascii;
    class       volScalarField;
    location    "0.0071";
    object      k_0;
}
// * * * * * * * * * * * * * * * * * * * * * * * * * * * * * * * * * * * * * //

dimensions      [0 2 -2 0 0 0 0];

internalField   nonuniform List<scalar> 
106891
(
0.018408250329660685168
0.018399581966501935698
0.018385952707348902219
0.01837834611304154514
0.018365877817099425517
0.018359444430277344074
0.01834728909230062821
0.018341484904259904715
0.0183300130640784327
0.018324861222618442358
0.018311966202172610951
0.0185155636750816803
0.018616903505984046946
0.018829853100723419751
0.019015660219691914168
0.019156855029687842873
0.019251789789981342549
0.019305542754371612241
0.019330249673192353294
0.019341157408926206579
0.019353195075755450644
0.019378977810335179521
0.019438804029707344723
0.019513846122293409396
0.019591571122633388152
0.019672369512507503764
0.019760140914599867018
0.019861341414070449174
0.019979745971462813114
0.020116434076663337882
0.020266223757632519098
0.020418168854349615787
0.020560444266493064364
0.02068267437705562789
0.020776820854498671137
0.020840937186318041208
0.020877425907536256017
0.020894080963677577611
0.020900837562234007849
0.020908312989585613184
0.020926047225184419426
0.020973829710803859605
0.021069125041875757381
0.021191051775391132189
0.021334032767441338946
0.021487365330731873769
0.02164066708102818995
0.021783511770540980174
0.021909060231761198073
0.019480317441113802202
0.019463273152039484853
0.019452965482300719341
0.019435780367428115434
0.019424953344667431759
0.019407736797228437864
0.019396625897511097364
0.01937947658525531261
0.019369041370046531647
0.019352417665641431094
0.019342751529841068631
0.019327096088610690172
0.019318366536006107564
0.019303715548615475034
0.019296194284524625234
0.019282001152285420387
0.019275098647043072825
0.019261451010166304176
0.019255189079331550689
0.01923943468345706842
0.019810572538495958145
0.019969832019005241686
0.020078814116560882858
0.020144774215834864578
0.02018426989166356017
0.020215524737055002441
0.020254445917499259988
0.020309265490309844765
0.020378433871027733931
0.02045552718584786947
0.020532864049091804903
0.020605008264299919801
0.020672284647885019043
0.020740755462439978279
0.020819367774131167237
0.020916180682207647507
0.021036502705675089869
0.021178431752471329336
0.02133614605392794919
0.02149860480573143745
0.021652397785995314283
0.021787372583946886667
0.021896328786695836571
0.021975035350383503863
0.022024933284972913333
0.022050296641707951145
0.022059310862376661777
0.022060619433621638658
0.022062141964652490222
0.022069209881097038434
0.022093502124394724662
0.022168344304052019222
0.022354695315257407801
0.022567052878365259638
0.022768683533894891469
0.02294783774678532326
0.020486430451113021856
0.020467379744508545913
0.020456089698179941161
0.02043681739097354122
0.020425080887722921186
0.020405623004135009513
0.020393367790590703065
0.020373884502355894821
0.020362334256018563283
0.020343403943173243853
0.020332607924477982819
0.020314801539782937484
0.020304887490078839252
0.020287990314907671657
0.020279231103653507645
0.020262807775211794797
0.020254755982794515196
0.020238946837469667245
0.020231523782647253817
0.020212764252625442518
0.020816361308813147168
0.02088285484911449677
0.020979260595644151632
0.02106933794078548472
0.021157134262349896331
0.021248041472837625454
0.021348488268175438987
0.02145832200062723974
0.021575505932276087956
0.021691023498477516457
0.021797273650205298279
0.021885493786409700168
0.02195615721173601112
0.022015302699033862527
0.022075381545975453906
0.022148130434992249066
0.022240735949766658741
0.02235504163785740489
0.022483245064654419632
0.02261736850386043135
0.022745591637090795817
0.022860864331010422035
0.022957356049099517797
0.023036475075596741374
0.023104132461827776857
0.023168153155932551951
0.023238096679701752967
0.023320103882041483268
0.023419547016367243258
0.023534258658963615185
0.023660752512318083962
0.023792253035546523376
0.023921148869896484424
0.024042468542757162997
0.02415103667078473404
0.024246587054969740566
0.021521769543012131409
0.021509276814542704903
0.0214875366491785319
0.021474625676671309921
0.021452833513512365587
0.021439353805934997094
0.021417372040914081643
0.021404581098233194797
0.021383343091281932502
0.021371396531168727895
0.021351255929161500752
0.021340219308698924611
0.021321083097217762709
0.021311160413799119101
0.021292438894085528173
0.021283178617635518937
0.021265056710669152928
0.021256343003521568913
0.021234337946156839338
0.021951979840987106279
0.02199433298395553002
0.022028713516306610426
0.02206328613706943359
0.022118199087287369886
0.022207750479341148431
0.022336842538188034918
0.022497146406910955435
0.022671073196126680788
0.022836845141850765223
0.022976930495975260438
0.023080446908781609983
0.023146385226932800899
0.02318104411332200937
0.023198559107297057197
0.023214735500939363139
0.023245758087491248667
0.023320589805958434615
0.023491949759732237007
0.023700582817224782189
0.023913418847798129097
0.024111733538682140338
0.024282734461435653839
0.024420247710213414949
0.024528679568213286599
0.024614213037336220291
0.024690102944344212432
0.024766427878335356416
0.024850860900087215488
0.024946355828535372173
0.025050064462209795102
0.025155308476196618084
0.025255597205413767015
0.025346232532506948049
0.022652296766719041271
0.022628355609155194339
0.022614540978616141931
0.022590384168274576376
0.022575989009781270711
0.022551501233744070812
0.02253665736599633207
0.022512141822951119846
0.02249793002779894302
0.02247417226404289925
0.022460991256774483216
0.022438516815838128321
0.022426369846190664231
0.022404884506335511624
0.022393789711188907127
0.022372539077328106039
0.022361996969636633442
0.022341197308995891513
0.022331003912206850298
0.022305354924518738802
0.023116378567781894343
0.02322178592817911516
0.023298216641023744566
0.023367120772535134726
0.023446553556437738086
0.023550811564627262967
0.023680960928159324602
0.023831249955229019677
0.023988321157778786513
0.024137414378876245746
0.024267067466376430335
0.024370453825372638545
0.024451723841866952747
0.024518457210189893714
0.024585035192570964258
0.02466238388860938352
0.024760433614666316204
0.02488024274918236578
0.025017956734730485702
0.025164976687664979138
0.025306782313161940712
0.025435100989852528486
0.025542658466864220229
0.025630210189859514019
0.025702696432376184038
0.025770643092923074813
0.025846340889248978906
0.025937491071657201025
0.026052488283773052313
0.02618843286222764799
0.02634147410791864638
0.026500187856509857531
0.026651019823778099305
0.023790411493715735852
0.023774890574995918846
0.023747914130716966941
0.023732018902837843238
0.023704942638609248495
0.023688559644856378023
0.023661278692853494193
0.023645468606641621701
0.023619073042407762175
0.023604457581853751508
0.023579499378649809715
0.02356609349206318163
0.023542125801480101588
0.023529726579674715287
0.023505613832944426828
0.0234936012549457722
0.023469551418012456201
0.023457626290217404447
0.023427825923735552671
0.024491890339113218944
0.02455076742794197811
0.024613815003998427283
0.024693737964642012428
0.024802035215253107059
0.024938683608261513758
0.025099240125876318142
0.025270881740517323055
0.025438767454076301883
0.02558897133509079394
0.025711713386173586787
0.025806345848000355331
0.025876307686158738636
0.025934401648238295662
0.025991515625669724121
0.026061142268273940203
0.02614881078611488649
0.026256821366566627379
0.026382471925832963466
0.026516383282951899031
0.026651202618786593718
0.02677900581879323616
0.026899353222120614415
0.027010949189457962583
0.027118614487577692718
0.027227738959562021448
0.027341010528206095842
0.027463352235004828
0.02759303892208719855
0.027727594738391099505
0.027860833092784628717
0.027985501146988309845
0.025011735620510126138
0.024994450046565676316
0.024964554829226267424
0.024946950759600974856
0.02491689696281132807
0.02489886447940522704
0.024868669831896197259
0.024851123582206067347
0.024821901021052399788
0.02480570584804611331
0.024777954675575808441
0.024763117792379024662
0.024736412392921139358
0.024722375025599790943
0.024695159842576613896
0.024681496519719015037
0.024653752755328783158
0.024639935792365414563
0.024605717924109281325
0.025507603594377037393
0.025546090256134808272
0.025653295679966447301
0.025814978503797932768
0.026007834572744109591
0.02622786656751931178
0.026460215220690194021
0.026687783485369837716
0.026892023800811161449
0.027059248319553353551
0.027183725374499242977
0.027270826564168078321
0.027329084623316433206
0.027374924412066608398
0.027423575679313996062
0.027486286745756496885
0.027570417860481869626
0.027675559019641568503
0.027802277021223373993
0.027942794028467585893
0.028094368608704022722
0.028251912312134187105
0.028414764726843504128
0.028578827115793820068
0.028738927110554347844
0.028895364930899360839
0.029042212825229875295
0.029179076301720778541
0.029302204237893519218
0.02941051250533340336
0.026281615644868555615
0.026248667116134105637
0.026229364606643046365
0.026196346294940591609
0.026176788412952990692
0.026143923751930558952
0.026124882814252892854
0.026093013692190396985
0.026075386665820154963
0.026044659738130335885
0.026028305219396020292
0.025998693555144208184
0.025982732549432768082
0.025952372244077558106
0.02593708321279366083
0.025906061387233812049
0.02589069107402754491
0.025852766596677387301
0.026805077825932343422
0.026998193264146593678
0.027191044928307293166
0.027395158091819749036
0.02761347546046187193
0.02784270617348386101
0.028070489388087569577
0.028280135852437299215
0.028452790526643564201
0.028577153208942853574
0.028653828704300107061
0.028693454215055348711
0.028717146010915701321
0.028748764562100365821
0.028808546660958642832
0.028904492726221833049
0.029038942516076807904
0.029203949537777603579
0.029390117449580924897
0.029583070204301245565
0.029772353726179437428
0.029951672423618933699
0.030114908227401839674
0.030261789132925986934
0.030393522610271245937
0.030515944421506055462
0.030630143116857182217
0.030738824085532225061
0.027704730637877764826
0.02767099816053589581
0.027650145117024432784
0.027616464513113114787
0.027596223953501704262
0.027563126809826522107
0.027543829799866689084
0.027511939792651929348
0.027493684662978811611
0.027462502535974132878
0.027445141702647068288
0.027414327491749237303
0.027397130785911882889
0.027365777311647035419
0.027349355668500531513
0.027317472812477136546
0.027301715365940695118
0.027266048621192407603
0.0285089863197519576
0.028637935039330549014
0.028796073513034065039
0.028983241313001551626
0.029192841399213690506
0.029409207011177763286
0.029613307929932154022
0.029788206824420182528
0.029924803840552086087
0.030024833827502574179
0.030097781256390954141
0.030161202269191163955
0.030231697254419428317
0.030322520829472131981
0.030438434515137766101
0.030578810723259016585
0.030735836099589287224
0.030900557223530956269
0.031064280368864511522
0.031221848014353723033
0.031373234137726871418
0.031516840359565985452
0.031654555061197034438
0.03178760370369496796
0.031917739710199996561
0.032045864277344689175
0.032171198437685746829
0.028903335473100824626
0.028860134675311396174
0.028829489166122670984
0.028786736060988374342
0.028755208137262101842
0.028712937524271994749
0.028680918044851899662
0.028638143403908151302
0.028606893917183642828
0.028563741776906247799
0.02853292893768594532
0.028489911223956082553
0.028459090399934890148
0.028417689950835448021
0.028385802073275512303
0.028345299414183029035
0.028314024245987379907
0.029201485549990153362
0.029255693860942951628
0.029336367413005749738
0.029451727067073406319
0.029603579068361293714
0.029783358634145801203
0.029980556652813360879
0.030180064699896976682
0.030373380654041357701
0.030559375161420911093
0.03073901179222606958
0.030922958601650615135
0.031115415320281336609
0.03131915609260606248
0.031527955867151055691
0.031730244303228696823
0.031911309224915945792
0.032056867018202636621
0.032162407522917248193
0.032227270121186743501
0.032263998085293177365
0.032287163465633379744
0.032318232547010716793
0.032376843550402940874
0.032478000578339230597
0.032633272932774112784
0.032832988924226154392
0.028926282848928050462
0.028891948206446395331
0.028825537121038281863
0.028790729415232994837
0.028722678012598267666
0.028686579858796034531
0.028616795116612456229
0.028580147474999116619
0.028509095663663549386
0.028472171752699455827
0.028400192373367771914
0.028363626476673911569
0.028291777372527002893
0.028255674075573448262
0.028165210224867676114
0.028171850146818219057
0.023581011367156710229
0.023583231677020848743
0.023583580976513578153
0.023585869049316764839
0.023595742348455194665
0.023630443367123256382
0.023744459134411703
0.023960491192980864356
0.024175827117390243787
0.024385718265840562041
0.024592379720389669073
0.024800695559469489171
0.02500818039254618444
0.025212205584635889732
0.025405040588745000929
0.025579668770482368728
0.025726614267611590953
0.025838551690859780374
0.025912265145674132777
0.025951909657979589652
0.02596625720196325815
0.025968742748414940652
0.025966005040591589453
0.025959765885449632983
0.02595831856793524503
0.025960976710808901513
0.025973008405837001711
0.026012135431108723838
0.023069633559159800906
0.023012658846454918382
0.022979504139410498326
0.02292156736048180099
0.022888415488514991109
0.022830323446179735108
0.022798022612751649152
0.022739805840901034656
0.022708644979492317167
0.022650273497748767831
0.022620295499549709223
0.02256241368342244355
0.022533649810950743403
0.022462387277573218208
0.022479378509149064436
0.022189891709655632651
0.022241151937024687679
0.022331834078730919413
0.022461988569153358564
0.022622411941684579528
0.022795158148164861717
0.022959550799811573318
0.02309885534642422758
0.023205639840428789189
0.023281750987687421794
0.02333903242598704339
0.023394817632972842586
0.023467307372143073052
0.023567721803608766146
0.023698235996057481073
0.023851727655315034526
0.024015647881323612389
0.024173792787819298883
0.024310807505022263841
0.024417427152834101506
0.024490447371637826673
0.024533477579890095727
0.024555477929604878351
0.024566750839084192798
0.024577740689711469191
0.02459796408210765048
0.024643639534689034537
0.0217289321905562334
0.021705492567555325495
0.021662048798905247232
0.0216379767616481887
0.021593584774028951045
0.021569578070304826906
0.021524978059326158736
0.021501632709994868142
0.021457087753377030587
0.021434348335298693961
0.021390143363449874714
0.021368153984300346931
0.021316725563380496677
0.021310527333597419769
0.021372983459279827623
0.021464189101428058498
0.021582637643992291787
0.021716613608900779686
0.021846611845016593312
0.021959937422961043479
0.022046861010590231011
0.022110375302327418129
0.022160035608343703339
0.022211805278561560367
0.022283295099533303313
0.022385940814597053011
0.022524675217935320043
0.022694092404564377569
0.022881432232099922774
0.023067298686335630659
0.023233207858431251941
0.02336638593752323606
0.02346001286641745745
0.02351954847727940473
0.023554524056847100238
0.023580113619135270597
0.023611821937279439676
0.023660870742696960001
0.023735564347956334547
0.023835015126937975083
0.020932146368706560507
0.02089101143923765419
0.020868420347647239493
0.02082658378660947468
0.020803853248813262283
0.020761483104363393642
0.020739184030601071074
0.020696778427526020538
0.020675159653011785515
0.020633049154734958014
0.020612120236814624602
0.02056436644099852995
0.020556029047761055495
0.020741497358492056585
0.020882929084837999201
0.021011232152008764429
0.021115811265559905618
0.021195387460770567095
0.021251714216273486641
0.021296107580952544636
0.021341602169650780718
0.021401777286259835581
0.021487879369304456467
0.021605194582542983778
0.021752370880660384933
0.021920805066908077841
0.022096832154524358865
0.022262866358491759794
0.022405307787685724979
0.02251596465334758726
0.022591325399502648619
0.022638001049796852016
0.022665964393276689243
0.022688775717782320995
0.022719813318204364061
0.022768603343531059607
0.02284193658247903394
0.022938886435494180993
0.02009376240100231234
0.020071971569711653804
0.020031583497674664007
0.02000950551490379356
0.019968408004504160924
0.019946553685878675582
0.01990536188216411595
0.01988443211105447514
0.019843746941658704785
0.019823556125694516417
0.019777383542791675264
0.019769481728952917332
0.02002020751021230463
0.02008432885262460485
0.020167827716108571029
0.020258750578773642576
0.020345184560997996853
0.020421986947980252936
0.020491808349213425783
0.020562375743852747551
0.020645547904478502715
0.020750718059976733243
0.020883156864280751075
0.021040553461043120381
0.021215695539847437279
0.021396405409378187884
0.021569535058323704296
0.021722750519436870992
0.021846941932363247302
0.021938579630258428499
0.021998805005914633115
0.022033368765284905982
0.022050169839812564648
0.022057796877523686702
0.022063405932472024418
0.022074110554863034944
0.019464283148383845767
0.019526798516515130738
0.019595824202785577794
0.019664981589318099309
0.019731698816456332002
0.019798451323743779945
0.019870611009704219896
0.019957376709613297572
0.020065477899456781591
0.020198433071502285008
0.020352026747969684944
0.020518018367012481884
0.020684283950070603275
0.020839004538923688176
0.020970883541853210796
0.02107399487119517717
0.021145953970191599253
0.021190220232486473712
0.021213102106169754585
0.021222983361558398624
0.021227505016269288679
0.021233403234370069879
0.021246905067341899376
0.018924637460842625575
0.018997553929583122639
0.019060968757366250625
0.019119446746871528175
0.019182229673975381007
0.019257957410779985574
0.0193523225004519836
0.019467301871432234756
0.019596418516715698871
0.019734267373346964236
0.019867569146950762177
0.019988328966367999162
0.020089960535118023266
0.020172036403495373358
0.020238283373694425371
0.020294704171390606784
0.020348409255249218924
0.020404347826682833061
0.020466846156277959667
0.020536176010403670716
0.020611095702308596112
0.018679127175786319759
0.018699127084754949002
0.018722369572164471174
0.018765707165100543874
0.018834627396841240043
0.018930266679415736625
0.01904510610030452078
0.019169354844484204348
0.01929106502977048776
0.019401373036332037608
0.019495749463295585641
0.019573765481772992941
0.019638450420746817598
0.019694488423573752039
0.019747879377313988514
0.019803421557992952062
0.019864326751828881995
0.018345825813275814381
0.018429205719011135939
0.018520523636200433154
0.01861207290665672226
0.018695987265543084765
0.018766236392419435863
0.018822759951223233532
0.018867750440627082537
0.018909349657370868453
0.018955246244003524231
0.019014297491567768578
0.019093057536270701541
0.01919152299401260045
0.017714425224071416592
0.017819684739977376814
0.017910398891027936447
0.01798077262198745363
0.018029376836035105464
0.018061121753359249409
0.018082154496158832357
0.01810345042548867564
0.018136503548954362869
0.018188871544554938153
0.018268459082017657336
0.018372746157912147463
0.011926341040855820488
0.012328632145678216844
0.012475638221655647661
0.012499749324144137849
0.012483668819692147339
0.012382939309739942821
0.01201488557018618071
0.011362570680604000897
0.010746798425260778095
0.010199501618422661745
0.009756735703203645374
0.0094495952394589195766
0.009279616952738423824
0.009219418242993266191
0.009216584826578382017
0.0092515148195359830918
0.0094296470527245324078
0.010102964931795689954
0.011595540074994640373
0.01284489067716317913
0.023970513097268397046
0.025141066039006523813
0.025698139054349335847
0.025867242488324376087
0.025880568110456692033
0.025825457261286235283
0.025567257635364611101
0.024769798364040893773
0.023632202420480592775
0.022505480461782603058
0.021430974659918392705
0.020518540000621150743
0.019873600399463509092
0.019522581329165220043
0.019412101066034439384
0.019415226687009935758
0.01951427638680608076
0.019950520120535220059
0.021462870075153909349
0.023691251808334250206
0.025345513181826873073
0.026361072459373271343
0.070286325738752986059
0.072338586785587868921
0.073387884924096827288
0.073687997876015445819
0.073704731710797818933
0.073589624720563809324
0.073135726307513679312
0.071881255027550924885
0.07012686540288086412
0.068317555699892576482
0.066421956804818937936
0.06462238641400080974
0.063231012850193613062
0.062384875301277481485
0.062079485716313727306
0.06206962736346805648
0.062225367926099867111
0.062870360648786677293
0.065025597824523828638
0.068947498709395219074
0.072090285663504463654
0.07405643720447831202
0.074860681035066212186
0.075011767638963569582
0.074943897637867948336
0.074602815905684627396
0.3705925359825275045
0.37438621695933405054
0.37563243038610982794
0.37568962827843921382
0.37497267340544249148
0.37163249576701562482
0.36648692658038539705
0.36267861878306123513
0.36007175525064255561
0.35847027022228444837
0.35734060503443237922
0.35667623217359784027
0.35654398980627816096
0.35666475464349151059
0.35733696867892328353
0.3596213578603524863
0.36668459427650768045
0.37900986798385638554
0.39020267583865048122
0.39866927361707849009
0.40331155812012908779
0.40490343799710382111
0.40492770637081842988
0.40405782563209191594
0.40063189412718741567
0.39181871972735649035
0.38252216729374832749
0.37484038120568657915
1.7509308676588806186
1.7524217553438532491
1.7521604955251430802
1.7499175721253561466
1.7417006609422505115
1.7311336586249703728
1.7226692401606678029
1.7162067158528493405
1.7118672753433110678
1.7088866135705125249
1.7068959442036251151
1.706126347427216805
1.7061904920627974924
1.7072495848121795881
1.7114491036916679167
1.7225649616917693141
1.7352778905827099809
1.7466777598945011363
1.7548258424443974324
1.7588232516844002351
1.7596312388059454079
1.7587244534141386332
1.7534495811752199845
1.7381758237764084463
1.7206947368863019232
1.7052223542835081016
1.6922949675979193085
1.682592698760305705
1.6765475567063397033
1.6738670055652598023
4.1309067526314340313
4.1114161377099822658
4.0912257810425787241
4.0719930437964810821
4.0548455149652342655
4.040102759381793085
4.0275127093532967493
4.0164413177223297069
4.0062687865365251838
3.9965891000147104606
3.9872940987288720827
3.9785000398519931863
3.9703324454973416557
3.9626958817480022468
3.9550964326353867939
3.9467565010518073088
3.9368362681237343281
3.9247272033895299614
3.9102582452433285454
3.8937496092284145099
3.8758702528327724224
3.8574935354030586154
3.8395336499803440766
3.8227898094065286827
3.8079777817689941521
3.795585437718255406
3.7855574614595162153
3.7777234424039503047
3.7715677597431374046
3.7667963905133885483
3.7628106963629899262
3.7590452441223987101
6.0677242832207500811
6.0437093550910025996
6.020479153013407192
5.9982030994629544907
5.9767574138125860728
5.9558121248350444077
5.9351403779916607206
5.914773795470818385
5.8949547259768797502
5.8758767908233986432
5.8576170747314399989
5.8400625978871492094
5.8229972566966168301
5.8061235760813776352
5.7890936438706743772
5.7716458177102243354
5.753698515937144542
5.7354861346400118904
5.7174042016944630618
5.6998405016015629698
5.6830130390792357176
5.6669312070126940384
5.6515389434057219376
5.6368370342672813322
5.6228563758675766948
5.6096111443187863799
5.5969380813979467959
5.5846150640639242724
5.5723213012765038243
5.5598796415995641595
5.5471236417372926653
5.5340859622548563834
5.5208487502535765756
10.244217478404898714
10.145063318512677952
10.0490106620505113
9.9549800047388448121
9.8621270883744092117
9.7698504463901585382
7.4090466772890888336
7.3874217067382010882
7.3665994538285897164
7.3466340371414053934
7.327266667412382084
7.3080507194731874065
7.2887383189063426059
7.2695094635813024553
7.2508158123542605367
7.233011688288436325
7.2161745138771742347
7.2001359079291500365
7.1845755556221142513
7.169076038307415466
7.1532723309043610982
7.1369715191926754727
7.120269064508711665
7.1035468012090854373
7.0872932471135960952
7.0718184104038801507
7.0571495651565125939
7.0430700699024706424
7.0292932050277556755
7.0157041568908535822
7.0023532893463471538
6.9893187775978002918
6.9765599948681957798
6.9639215060399015655
6.9511965838269906826
6.9382299782463956461
6.9250677627335042175
6.9118704223293692124
6.8990225674206469009
6.8867627378255020787
9.9256008908500223953
9.8462737630979901837
9.7709719329139783639
9.6964412967032096446
9.6206321523043030197
9.5429157322494884141
9.4643460864889608075
7.2515346264750704108
7.2299471988562951097
7.2094511610953748715
7.1897513349660950865
7.1704641362001826366
7.1515855509323777994
7.1337426509981005651
7.1178631470620867816
7.1042889621587885784
7.092473904006483032
7.0811874242012233793
7.0690894699817476976
7.0552161956871835002
7.0392876175870746636
7.0217269391268741785
7.0036398335619169941
6.9864855648228365581
6.9715438836727026128
6.9594118360999823736
6.9497023407717701815
6.9414620747043374038
6.9338422283484240083
6.9265191171670581483
6.919648814827064065
6.9134863745049415229
6.9079950365550617519
6.9029048318876276014
6.8979691271128649177
6.8932105102556908705
6.8889196916799324555
6.8855274862995505814
6.8834153244355329448
6.8826870855138002625
6.8829331660319121866
6.8831389025462383913
1.9647541829597974283e-06
1.9668557980001216833e-06
1.9689092932896459299e-06
1.9738594106428749235e-06
1.978100394671014112e-06
1.9865174818185816905e-06
1.9941728094128763048e-06
2.0034676398646660469e-06
2.0206189973324066042e-06
2.0333847025488554037e-06
2.0459820166683568147e-06
7.9437983605205875204e-05
7.5442415487293821696e-05
7.2395762022653027136e-05
7.0092277216238983674e-05
6.8387305506879798129e-05
6.7182957425257139252e-05
6.6381711759313583509e-05
6.5887103484034927514e-05
6.5571782449173920179e-05
6.5348569027533735939e-05
6.517095147528674374e-05
6.5043245672625872394e-05
6.4973037367735197523e-05
6.496469130203468337e-05
6.4988069143526186141e-05
6.5104428834764064182e-05
6.5450223337095296311e-05
6.578903254672435199e-05
6.6026800289675953437e-05
6.6188487978668470108e-05
6.6298436899635821546e-05
6.6375238420030978782e-05
6.6424052061235245963e-05
6.6457941429069850264e-05
6.6490159061565577031e-05
6.6547014712653931455e-05
6.6673939323228211874e-05
6.7019841120509468318e-05
6.7977229901844174443e-05
6.9097234878936252878e-05
6.9997031894328325076e-05
7.0623039020268344379e-05
7.098885489878662791e-05
7.1141881545798600563e-05
7.1166378268684973222e-05
7.1153486049983899453e-05
2.0317876559450939263e-06
2.0357900490994394043e-06
2.0403287422765211544e-06
2.0449956402802863468e-06
2.0497149559796467315e-06
2.0541223105226915263e-06
2.057778008660122284e-06
2.060513389510766139e-06
2.0632961893190873161e-06
2.0651219872741987135e-06
2.0676619337594908196e-06
2.0725094160522516825e-06
2.0755226290567538548e-06
2.0820261539533822061e-06
2.0865205059367955739e-06
2.0949058659672477195e-06
2.1022902274750402072e-06
2.1113739149125101258e-06
2.1278717913038123417e-06
2.1399144395996637624e-06
2.1514495382007783373e-06
8.7687266283844762511e-05
8.1567531503523593456e-05
7.6676949865874454923e-05
7.28741537894913216e-05
6.9964431629145466839e-05
6.7781804675224490548e-05
6.6193508168528166435e-05
6.5059744124801397597e-05
6.4243587198389197758e-05
6.3637592002731112198e-05
6.3210756278300075472e-05
6.2933837354624470157e-05
6.2801088577717992939e-05
6.2761631254397323536e-05
6.2772506994043415231e-05
6.2843120628333298621e-05
6.3132470822320764753e-05
6.4039060153133912966e-05
6.5234254703894998259e-05
6.6324299386123758806e-05
6.7304872760480223895e-05
6.8139328271765462548e-05
6.8797179339955306389e-05
6.9262776721482503047e-05
6.9552213671871307822e-05
6.9707083060360051246e-05
6.976659736428326541e-05
6.9778905821797651099e-05
6.9774697120190729113e-05
6.9760860376688482872e-05
6.9719314832534406328e-05
6.9618895126265735907e-05
6.9505747098389954164e-05
6.9410054673331455805e-05
6.9306595917118578808e-05
6.9182615976424898982e-05
2.1314024403745994717e-06
2.1358420376604856638e-06
2.1406818398075738934e-06
2.1464220282247087058e-06
2.1516331893124690561e-06
2.1570248256928805816e-06
2.1616297178926277713e-06
2.1652831989332974073e-06
2.1707319341116747667e-06
2.1748510174791400745e-06
2.1806473058503934443e-06
2.1880546304252145849e-06
2.1924494933148508638e-06
2.2009144842297297275e-06
2.2060360025193312282e-06
2.2152026236249615243e-06
2.2222386373216729953e-06
2.2305924421206308145e-06
2.2444858962260404217e-06
2.2543920262809151381e-06
2.263706082344105296e-06
8.4112252877070083751e-05
7.8463534102684724908e-05
7.4011883594099397488e-05
7.0605906697594316692e-05
6.8116507602803455013e-05
6.6390413358697795108e-05
6.5281904821798907544e-05
6.4630019818781486219e-05
6.4302789358332477468e-05
6.4170671165594229068e-05
6.4148432394808038281e-05
6.4185514847170873644e-05
6.4387466270522943318e-05
6.505740202643370653e-05
6.5946946093965521664e-05
6.6696121987173305696e-05
6.733878662181844838e-05
6.7910421929489873634e-05
6.845290799216580417e-05
6.8994431789777012614e-05
6.9542470584740980572e-05
7.0090657736540432055e-05
7.06137199860227291e-05
7.1081421378407609601e-05
7.1447423336326330097e-05
7.1690476688373574662e-05
7.1815796864605892734e-05
7.1856713586907890678e-05
7.1869152400646707708e-05
7.1891218193709295896e-05
7.1946617441518803432e-05
7.2062874224278216945e-05
7.2175588482751833349e-05
7.2264765669980608764e-05
2.2547002524047693589e-06
2.2607351287064849441e-06
2.2664036617559951806e-06
2.2707384917307184841e-06
2.2748122379167865746e-06
2.2789254310962715762e-06
2.2821419034305381589e-06
2.2857355901862923192e-06
2.2894929581149677081e-06