/*--------------------------------*- C++ -*----------------------------------*\
  =========                 |
  \\      /  F ield         | OpenFOAM: The Open Source CFD Toolbox
   \\    /   O peration     | Website:  https://openfoam.org
    \\  /    A nd           | Version:  12
     \\/     M anipulation  |
\*---------------------------------------------------------------------------*/
FoamFile
{
    format      ascii;
    class       volScalarField;
    location    "0.0071";
    object      nut;
}
// * * * * * * * * * * * * * * * * * * * * * * * * * * * * * * * * * * * * * //

dimensions      [0 2 -1 0 0 0 0];

internalField   nonuniform List<scalar> 
106891
(
7.7991139725451172349e-06
7.7918608178925079737e-06
7.7835629831089534034e-06
7.7765458244070173258e-06
7.7685063026881046028e-06
7.7617500854955964826e-06
7.7537908905129758339e-06
7.7471803857848925114e-06
7.7393797235644240003e-06
7.7329192213793981886e-06
7.7248325300653530184e-06
9.8911462135646650639e-06
9.911145194634224498e-06
9.9607168119463961373e-06
1.0002838911305393053e-05
1.0032990433789603941e-05
1.0050887581686695048e-05
1.0057959499832187667e-05
1.0057426987664130799e-05
1.0053284953574201838e-05
1.0049424487725799104e-05
1.004911459924040084e-05
1.0057596041407358892e-05
1.0069990568595615595e-05
1.0083014103043065569e-05
1.0096757862511280388e-05
1.0112212366960016661e-05
1.013101184163672921e-05
1.0154087676832485669e-05
1.0181671041870969834e-05
1.0212406238298520474e-05
1.0243507887533749947e-05
1.0272015654224367492e-05
1.0295376494173696176e-05
1.0311648595520942916e-05
1.0320408453542738445e-05
1.0322295704398274811e-05
1.0319261713925198794e-05
1.0313769710857374228e-05
1.0308442492189885979e-05
1.0305624790528299944e-05
1.0310155438587326199e-05
1.0326333305664734232e-05
1.0348948849067692956e-05
1.037657859274969208e-05
1.0406570292659486133e-05
1.043638716830106407e-05
1.0463522591524104346e-05
1.0486366184870541743e-05
8.2832303728966201722e-06
8.273862224443800234e-06
8.2659333579076785042e-06
8.2565503663603163979e-06
8.2485237728497783245e-06
8.2391467727958097607e-06
8.2310712682030306406e-06
8.2217198982228801619e-06
8.2137984616443695743e-06
8.2045705281987266379e-06
8.1968233006356408933e-06
8.1878135240324372517e-06
8.180277240818104945e-06
8.1714937518858824498e-06
8.1642263447168359001e-06
8.155554248611328612e-06
8.1484309104109374923e-06
8.1398890298055847638e-06
8.1329144134774099701e-06
8.123943792324742145e-06
1.0489822960616991706e-05
1.0524645183328216899e-05
1.0546052183737676333e-05
1.0556068506695598207e-05
1.0559095528790815501e-05
1.0559928054581385433e-05
1.0562732351240569043e-05
1.0569653513411009216e-05
1.0580274209419925993e-05
1.0592907505112000049e-05
1.0605551823793297163e-05
1.0616799254074126165e-05
1.0626734624478391996e-05
1.0636917207475094023e-05
1.0649634742664163293e-05
1.0666926974047476312e-05
1.0690108800181533655e-05
1.0718642356885779704e-05
1.0750999808368886452e-05
1.0784363719576679332e-05
1.0815369393932201337e-05
1.0841516990739206809e-05
1.0861073994713905177e-05
1.0873054140092962931e-05
1.0877866552805763248e-05
1.0876599651384818797e-05
1.087128706497711188e-05
1.0864063874069266878e-05
1.0856885443434546539e-05
1.0851060472368691354e-05
1.0849449025708610936e-05
1.0860167387118649173e-05
1.0898046700734313286e-05
1.0942098386835133502e-05
1.098326317771748782e-05
1.1018763976843992992e-05
8.715340391213146414e-06
8.7052432457083712795e-06
8.696804410193851971e-06
8.6866761716203765069e-06
8.6781557931228979426e-06
8.6680016430011587269e-06
8.6593831830230462112e-06
8.6492361622932866584e-06
8.6407796865755535199e-06
8.6307640380440107833e-06
8.6224803442786567784e-06
8.6127172534759066723e-06
8.6046339277899383687e-06
8.5950777459425081056e-06
8.587252680696554378e-06
8.5778119343861569673e-06
8.5701504031277684563e-06
8.5608554017219295253e-06
8.5533412743863185203e-06
8.5434401398853512729e-06
1.103260658842579056e-05
1.1042481453022015342e-05
1.1060262800048726797e-05
1.1076294870635865482e-05
1.1091640380699473216e-05
1.1107713052906029522e-05
1.1126188685707076654e-05
1.1147014830534178754e-05
1.1169648455133255937e-05
1.1191745899015408043e-05
1.1211353255228308708e-05
1.1226239331065823599e-05
1.1236554476963032151e-05
1.1243866340106919608e-05
1.1251365768229026578e-05
1.126204159751777169e-05
1.12777006753842485e-05
1.1298774985841762209e-05
1.1323250558483981157e-05
1.1349090017980463505e-05
1.1373321313063776221e-05
1.1394201552182392259e-05
1.1410311548734968591e-05
1.1422037073520804336e-05
1.143087015062775945e-05
1.1438757610470423289e-05
1.1448056323578799408e-05
1.146026264352539453e-05
1.1476673545309068578e-05
1.1496730154734377866e-05
1.1519557492817580091e-05
1.1543491016408402987e-05
1.1566680335331848946e-05
1.1587932656174351067e-05
1.1606018124728912958e-05
1.162089602821952593e-05
9.1587929976846526979e-06
9.149781692238312847e-06
9.1388111809274603855e-06
9.129724933206608849e-06
9.1187579322315552149e-06
9.1095640859209891355e-06
9.0985705352081837181e-06
9.089536437858235701e-06
9.0787164364043310827e-06
9.069876215245097439e-06
9.0593049674777584946e-06
9.0506722939683032755e-06
9.0403291930603722651e-06
9.0319468462951306062e-06
9.0217071955296898361e-06
9.0134795646844976564e-06
9.0033837862831642856e-06
8.9952877011366868127e-06
8.9843889823092626981e-06
1.1616111683126680314e-05
1.1619234024064245157e-05
1.1620247964993211422e-05
1.1621272360949804004e-05
1.1627607251088124043e-05
1.1642984248595872207e-05
1.1668627171102611225e-05
1.1702273072960927015e-05
1.1739270912537336453e-05
1.1773956008272126202e-05
1.1801845726792497879e-05
1.1820221005526628964e-05
1.1828901914411134021e-05
1.1829553512664003659e-05
1.1825811571467196342e-05
1.1821713631997519188e-05
1.1821374194512585589e-05
1.1832089172289535212e-05
1.1867145598699898961e-05
1.1911434877243971949e-05
1.1956492760569607418e-05
1.1997652190117269089e-05
1.203179535963101958e-05
1.2057478415798271289e-05
1.2075867079574339566e-05
1.2088534323401486481e-05
1.2098761861519540079e-05
1.2109028009829626296e-05
1.2121207559306699709e-05
1.213601471725621927e-05
1.2152749155887850862e-05
1.2169785762669675847e-05
1.218555635005778555e-05
1.2198935749605328897e-05
9.6473111611373744338e-06
9.6355210308781984223e-06
9.6258956426523861489e-06
9.6140772869915528304e-06
9.6043431221540617764e-06
9.5924694425876798906e-06
9.5826539255976980058e-06
9.5707896166606869074e-06
9.561123337023405303e-06
9.5494368199833402883e-06
9.5400053494062090053e-06
9.5286086210854558406e-06
9.5194126013339767716e-06
9.5082425464611406622e-06
9.499285483688795978e-06
9.4881821994487415057e-06
9.4793576755476255662e-06
9.4683676586702639959e-06
9.4596337209689272928e-06
9.447636055288863649e-06
1.2230092210262503478e-05
1.2249474980396352625e-05
1.2261116580637196436e-05
1.2270698455790165804e-05
1.2282972942656867555e-05
1.2301670215287444389e-05
1.2327025526285025257e-05
1.2357485669980938962e-05
1.2389543460950611759e-05
1.2419376364813384847e-05
1.2444061776536585463e-05
1.2461898382076880436e-05
1.2474000577742678697e-05
1.2482338833749340883e-05
1.2490589893516424946e-05
1.2501523949949161428e-05
1.2517634172535107231e-05
1.2539149468579535094e-05
1.2565055375857314018e-05
1.2593162418221842821e-05
1.2619830015315513844e-05
1.2643015705944731018e-05
1.2660945482999727373e-05
1.2673843595124438836e-05
1.2682959829742980267e-05
1.2690904612475182214e-05
1.2700703593355693716e-05
1.2714229916199850499e-05
1.2733509609796527502e-05
1.2757792144025651909e-05
1.2786102198158616234e-05
1.2815644462801008025e-05
1.2843142338262765676e-05
1.0136758793578694605e-05
1.0126420440960308961e-05
1.0113650876597457588e-05
1.0103248290573598579e-05
1.0090473394697296199e-05
1.0079981670126653289e-05
1.0067179071022211678e-05
1.0056824947677763549e-05
1.0044228484014739111e-05
1.0034145562307042763e-05
1.0021873466584708346e-05
1.0012065187009420975e-05
1.0000022220021936989e-05
9.9904456073411205435e-06
9.9783909479221337722e-06
9.9689135812454409205e-06
9.9568914195780413456e-06
9.9474497088358387116e-06
9.934227309064820431e-06
1.2907170758549893656e-05
1.2913705537833283687e-05
1.2921279130961456678e-05
1.2933221034230913006e-05
1.2952515505642697149e-05
1.2979104063071706402e-05
1.3011763965143143616e-05
1.3047115506351788147e-05
1.308130631694623496e-05
1.3110777843186499815e-05
1.3133078601900454759e-05
1.3148107554534245315e-05
1.3156791480261895367e-05
1.3162415347890436872e-05
1.3167750215122805255e-05
1.317620689809631059e-05
1.3189164211330751706e-05
1.320717332529442363e-05
1.3229524491222656308e-05
1.3253839648625586231e-05
1.3278267674532703087e-05
1.3300833720731488458e-05
1.3321441505333323716e-05
1.333978711123116217e-05
1.3357075196412582764e-05
1.3374638923221720697e-05
1.3393130145234489336e-05
1.3413738713209326546e-05
1.343602489411895357e-05
1.3459375754676144234e-05
1.3482292947104607302e-05
1.3503038097762977377e-05
1.066398391855506428e-05
1.0652901834392878216e-05
1.0639141106279490542e-05
1.0628007098976646619e-05
1.0614229207678551868e-05
1.0603019381736265454e-05
1.058922807105351814e-05
1.0578138093179729806e-05
1.0564572214145884313e-05
1.0553788110637747128e-05
1.0540555826161129372e-05
1.0530080367741108749e-05
1.05170917338871688e-05
1.0506806852481946298e-05
1.0493731229613522584e-05
1.0483544746436232115e-05
1.0470378058124327894e-05
1.0460176486937480678e-05
1.0445653432459369952e-05
1.350528379073895235e-05
1.3506026869332016485e-05
1.3524843894801858845e-05
1.355794644156280558e-05
1.3599018295824050114e-05
1.3646923161587817358e-05
1.3697717972861386476e-05
1.3746956614254951206e-05
1.3789905373617993334e-05
1.3823147199270082868e-05
1.3845324827767633544e-05
1.3857895461339326764e-05
1.3863082015220502973e-05
1.3865076781820078643e-05
1.3867745916520266616e-05
1.387392863399271187e-05
1.3885469400855519624e-05
1.3902236251775922795e-05
1.392433427383322033e-05
1.3949774798995232474e-05
1.397783723657889895e-05
1.4007230096810343952e-05
1.4037780977970297004e-05
1.4068478417281148041e-05
1.4098051105447278019e-05
1.4126579146397009358e-05
1.4152619917296711371e-05
1.4176092868430303391e-05
1.4196110600171181793e-05
1.4212444003311004378e-05
1.1207831137700593923e-05
1.1193030228103248433e-05
1.1181146874527832789e-05
1.1166348482094553052e-05
1.1154426808671945447e-05
1.1139678827370929918e-05
1.1127884899604594508e-05
1.1113368627223044094e-05
1.1101895564701391521e-05
1.1087644558207320213e-05
1.1076463754509959761e-05
1.1062473744966914378e-05
1.1051399488196354543e-05
1.1037273106926811419e-05
1.1026362422810850514e-05
1.1012118090353160399e-05
1.1001208248207679851e-05
1.0985515458616076773e-05
1.4194462818622310675e-05
1.4235608081318515416e-05
1.4276437135661158281e-05
1.4319958909598102698e-05
1.4366908789943065358e-05
1.4416394354415976403e-05
1.4465201245751957074e-05
1.4509063713889176758e-05
1.4543228830603067679e-05
1.4564913790471467359e-05
1.4574364301708601243e-05
1.4574341498998258745e-05
1.4570234208224335258e-05
1.4568102680885138307e-05
1.4573072261344524226e-05
1.458714055076323893e-05
1.4610842722084947781e-05
1.4642102043570555319e-05
1.4678490367940474703e-05
1.4716368259986264399e-05
1.4753122167722340259e-05
1.4787213790318199684e-05
1.4817172499870308214e-05
1.4842973601883915593e-05
1.4864945328787992072e-05
1.4884535600755582116e-05
1.4902020326434409363e-05
1.4918069825313245983e-05
1.1806518526297281489e-05
1.179113876003486775e-05
1.1778511940334184649e-05
1.1763161575201923695e-05
1.1750682410151447302e-05
1.1735475459381828625e-05
1.1723216137053636067e-05
1.1708287872261141356e-05
1.1696271656197595665e-05
1.168151702450942998e-05
1.1669713236621884387e-05
1.1655061237508403902e-05
1.1643315355715453879e-05
1.1628571998948978653e-05
1.1617012366234564681e-05
1.160217896645633455e-05
1.1590779687345019133e-05
1.1575163938994930822e-05
1.5008989655795463945e-05
1.503242659394508767e-05
1.5063375440802678399e-05
1.5101726517990849956e-05
1.514568980062104027e-05
1.5191156129819824471e-05
1.5233215724406823125e-05
1.5267565619377372718e-05
1.5291953795234714182e-05
1.5306895867963020002e-05
1.5314858300670502426e-05
1.5320334213014555417e-05
1.532755185503053888e-05
1.5339867619293260422e-05
1.5358461802054039567e-05
1.5383135033831106682e-05
1.5411875616647380765e-05
1.5442396559821220954e-05
1.5472507180159361504e-05
1.5500926821006657565e-05
1.5527666764146257745e-05
1.5552354281935019362e-05
1.5575475887728603005e-05
1.5597345344325266468e-05
1.5618397892973152571e-05
1.5638856063005475075e-05
1.5658532218405385591e-05
1.2364206935675262701e-05
1.2346383842166828759e-05
1.233125673532120534e-05
1.2313551854317099688e-05
1.2298258380567168879e-05
1.2280679740341041503e-05
1.2265305681786397115e-05
1.2247643305979885112e-05
1.2232458397618522887e-05
1.2214740245108835585e-05
1.2199672555664163541e-05
1.2182007702556882435e-05
1.216696109676577967e-05
1.2149666347411339435e-05
1.2134415379033409746e-05
1.2117335047679099119e-05
1.2102239445996205381e-05
1.5596113000248197801e-05
1.5599729339396677948e-05
1.5610342182366654498e-05
1.5630102422215444701e-05
1.5659425463337057371e-05
1.5695968127795705552e-05
1.5736896174187654156e-05
1.5778207714631963454e-05
1.5817677643328316412e-05
1.5855027618437223848e-05
1.5890521900846482352e-05
1.5926923451710207029e-05
1.5965302908737538922e-05
1.6006353112122033655e-05
1.6048469906709548122e-05
1.6088714385384170728e-05
1.6123393314903688192e-05
1.6148957407818106838e-05
1.6164341142997639566e-05
1.6169436847573184736e-05
1.6167431584372206398e-05
1.6161997179354897113e-05
1.6158511753630201967e-05
1.6161876894069784124e-05
1.6175803907591713581e-05
1.6203109051539863053e-05
1.6241289385913685727e-05
1.2681931192002060131e-05
1.2665600579054859783e-05
1.2642250352827102649e-05
1.2625842113195502906e-05
1.2602155809497737223e-05
1.2585490253832857998e-05
1.2561445358110111871e-05
1.254468389223732418e-05
1.2520381476366114479e-05
1.2503582823452834901e-05
1.2479095499996554127e-05
1.2462397649990186326e-05
1.2437958182260158859e-05
1.2421386387132614919e-05
1.239287419287172983e-05
1.2385728074270468461e-05
1.2200731528132570763e-05
1.2192843037695184203e-05
1.2184465342384528223e-05
1.2176588608273363566e-05
1.217066526907871764e-05
1.2171109708651484685e-05
1.2191827189354699439e-05
1.2238625640940054806e-05
1.2284960037662675267e-05
1.2329606853868405975e-05
1.2373145363041138355e-05
1.2416816855852388004e-05
1.2460001429768922241e-05
1.2502056015907798582e-05
1.2541088236619822477e-05
1.2575413443601659861e-05
1.26027680964081972e-05
1.262143253801818247e-05
1.2630689470390884702e-05
1.2631601799474517775e-05
1.2626334826896527247e-05
1.2618172099297700171e-05
1.2608742844567722208e-05
1.2598460836101994177e-05
1.258934687630295076e-05
1.2581235787709490293e-05
1.2575395052420473258e-05
1.2576084341845244455e-05
9.8525153197552631641e-06
9.8335093487311312958e-06
9.8196015798022137676e-06
9.8004068578805034564e-06
9.7865184919759730403e-06
9.767305644172938079e-06
9.7536175015978298703e-06
9.7343921600233390039e-06
9.7209651549421058212e-06
9.7017204176661732613e-06
9.6885635870027342467e-06
9.6694383130075712857e-06
9.6565603367191971617e-06
9.6345827357626182723e-06
9.631532697661036738e-06
1.1601600299413157623e-05
1.1606886943358252966e-05
1.1622404970974196226e-05
1.1648093929375766492e-05
1.1681477142521072831e-05
1.1717846338853181581e-05
1.1751868168650750663e-05
1.1779301299534547011e-05
1.1798324469161457087e-05
1.1809474627423101152e-05
1.1815797559646065649e-05
1.182169612924363767e-05
1.1831762208927212317e-05
1.184879446399949283e-05
1.1873287595199391023e-05
1.1903394566197227615e-05
1.1935936325022278545e-05
1.196687323732686657e-05
1.1992432672748864036e-05
1.2010386232402643311e-05
1.202000626446153636e-05
1.2022225663748222621e-05
1.2019270786868784719e-05
1.2013679436931333272e-05
1.2008012080131314503e-05
1.2004592683458487971e-05
1.2007350076163509725e-05
9.3730764053477671127e-06
9.3615170446244162355e-06
9.3456527604363133391e-06
9.3339755632320280446e-06
9.3179231847714560119e-06
9.3062766154360099247e-06
9.2901946269997015256e-06
9.278706920221889068e-06
9.2626523810554190467e-06
9.2513119867421066475e-06
9.2353473697283853378e-06
9.2241872836345253559e-06
9.2066817278635202081e-06
9.1989513479001928909e-06
1.1161112488771470139e-05
1.1177101986017995533e-05
1.1200097356267551312e-05
1.1227003352377175853e-05
1.1252747491457027075e-05
1.127407594389089301e-05
1.1288535771985507434e-05
1.1296942775751148868e-05
1.1301770793844238776e-05
1.1307099783382545784e-05
1.1317400139782187523e-05
1.1335535666303374729e-05
1.1362685766201978288e-05
1.1397398922402369063e-05
1.1436394509935374019e-05
1.1474791005555368272e-05
1.1508016692987281025e-05
1.1532978896616937343e-05
1.1548075137052823028e-05
1.1554716042666206713e-05
1.1555285532077093301e-05
1.1553526731089742386e-05
1.1553245963202576988e-05
1.1557182764140741952e-05
1.1567345640871372174e-05
1.1583483031356307899e-05
9.0179197508734243238e-06
9.0028022696820632093e-06
8.9916881859766489436e-06
8.9764350410279161876e-06
8.9653064668628054483e-06
8.9499526703731039436e-06
8.9389322062582207679e-06
8.9235856987258597962e-06
8.9127281023879418312e-06
8.8974618100296310131e-06
8.8867710981984540626e-06
8.8703061947025069271e-06
8.8623500595182489034e-06
1.077775551316755439e-05
1.080694272864953347e-05
1.0832588331960684835e-05
1.085199803935937809e-05
1.0864893919084540251e-05
1.0871771776674293215e-05
1.0875558603921548525e-05
1.0879597211555372537e-05
1.088734254348383516e-05
1.09016258174532108e-05
1.0923731968999950389e-05
1.0953244344836927352e-05
1.0987921780256472356e-05
1.102429274400581784e-05
1.1057968835607798202e-05
1.1085617664641406299e-05
1.1105282289583987525e-05
1.1116162692587656377e-05
1.1119936042718306089e-05
1.1119082878055932889e-05
1.1116944443167641997e-05
1.1116803515051851292e-05
1.1120982456609518777e-05
1.1131118302430333963e-05
1.1146948853517028093e-05
8.6609732926182551264e-06
8.6502680124160613221e-06
8.6355621059687363644e-06
8.6248095558554973775e-06
8.6099641738185693539e-06
8.5992743004469991203e-06
8.5844228132485067448e-06
8.5739480763131562251e-06
8.5592222315249969524e-06
8.5489246274538191624e-06
8.533032870353431584e-06
8.5254044539020719785e-06
1.0379659537900796655e-05
1.0389026826543338265e-05
1.0403356084527175241e-05
1.0419531538086679201e-05
1.0434481249960003279e-05
1.044689839210162868e-05
1.0457476832432439183e-05
1.0468192068895453182e-05
1.0482049057893402227e-05
1.050139763102349366e-05
1.0527515784891226976e-05
1.0559752534082691668e-05
1.0596234233128750979e-05
1.0633880107309709865e-05
1.0669421632650760574e-05
1.0699846149967330301e-05
1.0722974138898359406e-05
1.0738011644276334157e-05
1.0745300434289020288e-05
1.0746290052685847496e-05
1.0742933607983759869e-05
1.0737336821761212565e-05
1.073124570854849455e-05
1.0726388667217256315e-05
1.0032378439399449835e-05
1.0041489632962730867e-05
1.0052229367412485129e-05
1.0062954664028483091e-05
1.0073007851645137298e-05
1.0083023167675941327e-05
1.0094362009523217345e-05
1.010933955100319409e-05
1.012962141057821764e-05
1.0156042195128432752e-05
1.0187482195087435162e-05
1.0221829867597208348e-05
1.0256043456952252885e-05
1.0287206840781893346e-05
1.0312576067824848157e-05
1.0330756832032690759e-05
1.0341226351875978354e-05
1.0344880528975455353e-05
1.0343293013095907523e-05
1.0338526818551114228e-05
1.0332451899399316603e-05
1.0326709764694778782e-05
1.0322806693842475178e-05
9.690176201692471831e-06
9.7020962521940961107e-06
9.7115363661404542557e-06
9.7196717796729097566e-06
9.728852392204690835e-06
9.7412552766226371783e-06
9.758289739383012594e-06
9.7804151579123910887e-06
9.8059628160975727024e-06
9.8335526375265887327e-06
9.859868584185663479e-06
9.8829452249005861862e-06
9.9011880479575602756e-06
9.9145290889645098137e-06
9.9239163612408956691e-06
9.9308455199080010169e-06
9.9370712133080910642e-06
9.9438068645199688579e-06
9.9521035809943885576e-06
9.9620179186448991907e-06
9.9732371452077738281e-06
9.4173922034943297196e-06
9.4158948275526118158e-06
9.4151865902751204657e-06
9.4195004935719769663e-06
9.4301944895803613104e-06
9.4475144236745203758e-06
9.4695346732389941809e-06
9.4937800213499591844e-06
9.5172736557104329621e-06
9.5378381927854316552e-06
9.5543887807146246654e-06
9.5668552170489825509e-06
9.5760080968902231829e-06
9.5830096719670147587e-06
9.5893298087542179936e-06
9.5961346634942729165e-06
9.6041983539191863318e-06
9.1295420285797923533e-06
9.1438975737842460064e-06
9.1601572961490677145e-06
9.1764028111472389568e-06
9.1906971658118088005e-06
9.2015724624798420186e-06
9.2090356860802346752e-06
9.2136414803949323783e-06
9.2173891832363275727e-06
9.2221539255515421428e-06
9.2300792719772522176e-06
9.2427328332684650014e-06
9.26007906670356563e-06
8.7938377445769803123e-06
8.813814962733658502e-06
8.8301090331703218164e-06
8.8413231730227162026e-06
8.847139765593274268e-06
8.8487914052615764156e-06
8.8478004902788585928e-06
8.8468576250152786448e-06
8.8487685056181793436e-06
8.8553593855787737007e-06
8.8685223633807783693e-06
8.8875964342087942805e-06
5.301373830579466158e-06
5.3865841525277171137e-06
5.4150039703915346643e-06
5.4165330395902632038e-06
5.4093288078966081169e-06
5.3838562511665961761e-06
5.2999293586721475888e-06
5.1505469486035453989e-06
5.0055549218364715473e-06
4.8729981200297602207e-06
4.7626536617671023523e-06
4.6837139011888689378e-06
4.6380540296229339772e-06
4.6196893994795809295e-06
4.6157403601994495708e-06
4.6211975288475321021e-06
4.6619883494451373979e-06
4.821411929625872309e-06
5.1616119467440445203e-06
5.4292726917140970403e-06
7.3772543180685717251e-06
7.5504221706404546469e-06
7.6286218111160271349e-06
7.6485287148427489646e-06
7.6452399534576811921e-06
7.6318679152938674013e-06
7.5885660030086559251e-06
7.4645076203286356197e-06
7.2860792981748009984e-06
7.1053545294593776176e-06
6.9288177240684766553e-06
6.7748958598296624625e-06
6.6627681747586780256e-06
6.5989005719249575391e-06
6.5755110907190642415e-06
6.5714335456147912474e-06
6.5834786622811815248e-06
6.6516584471333627148e-06
6.8934889851916601627e-06
7.2377805903448809782e-06
7.4814624573564102267e-06
7.624961649772876013e-06
1.2409465140919044842e-05
1.2580932556856638349e-05
1.2663361294860984586e-05
1.2680602399059663412e-05
1.2673295211027021151e-05
1.2654693343140960084e-05
1.2607058384584566009e-05
1.249013141234791633e-05
1.2328284223607907319e-05
1.2159822620238679828e-05
1.1981645485078508431e-05
1.1809953689420222829e-05
1.1673854840320456097e-05
1.1587238970584544541e-05
1.1550662654065123764e-05
1.1541673780727519283e-05
1.1548013734899861829e-05
1.1599354749501235482e-05
1.1787456200560330661e-05
1.2129338325097624852e-05
1.2394496204599516235e-05
1.2554102779869378339e-05
1.2613653642580270305e-05
1.2617746413115647983e-05
1.2603331998859098427e-05
1.2566025162093696303e-05
2.7972319172603059848e-05
2.8096011959728302526e-05
2.8123449120459086191e-05
2.8106127340332324695e-05
2.8060002721703486997e-05
2.7915940196550499789e-05
2.7702735822653042536e-05
2.7539188699617897288e-05
2.7420898764545766703e-05
2.7340800510441004714e-05
2.7278691803904512008e-05
2.7234328896654571043e-05
2.7210320796321729178e-05
2.7195996548097711102e-05
2.7202595700924174239e-05
2.7270096149719460805e-05
2.7516441302399051401e-05
2.7955548714354585508e-05
2.8345946362044729467e-05
2.8632431652578870489e-05
2.8779194342982655319e-05
2.8816288141869640888e-05
2.8797279284397240033e-05
2.8746599236897711312e-05
2.8605180404029464686e-05
2.8269747372590748772e-05
2.7912741454719514078e-05
2.7611592023393016949e-05
5.9685074911907781128e-05
5.9669163671389227306e-05
5.9623300050701869793e-05
5.9543898160148721376e-05
5.9363094655822473895e-05
5.9141573565287667061e-05
5.8955786958579878818e-05
5.8804208395835630451e-05
5.868903828662994283e-05
5.8597235258525112245e-05
5.8522432616012369576e-05
5.8468573442232741342e-05
5.8429040431536901766e-05
5.8406475346173002984e-05
5.8437356927162701357e-05
5.8585768416858242241e-05
5.8760831595387962533e-05
5.8912752217277840447e-05
5.900923348336833095e-05
5.9035609269754087027e-05
5.9008298488651365888e-05
5.8952281147669185677e-05
5.8823450556316704725e-05
5.85266657286430514e-05
5.8191098685882340961e-05
5.7888525391686793055e-05
5.7628419051589731574e-05
5.7422804155920150631e-05
5.7279470309057660892e-05
5.7193709427717525533e-05
8.9990914403107469797e-05
8.9716088623626605043e-05
8.9433342593622777977e-05
8.9160818610745874095e-05
8.8911007115673044076e-05
8.8687560101039604119e-05
8.8487781247705560978e-05
8.8304723923679804632e-05
8.8131577906236659397e-05
8.7963886758882955095e-05
8.780048120429020692e-05
8.7642661856340389509e-05
8.7491831112013364454e-05
8.734697311267141653e-05
8.7202672819642972589e-05
8.7050347639349641188e-05
8.6880676441086638132e-05
8.6686852485095796435e-05
8.6466894792769835435e-05
8.6224267412434582526e-05
8.5966329332702557742e-05
8.5702734597474430206e-05
8.5443626038421530448e-05
8.5197900351477242622e-05
8.497358321830944972e-05
8.4776208822909894557e-05
8.4605257103252730377e-05
8.4458898298669238128e-05
8.4331400718649996763e-05
8.4219490684504815826e-05
8.4116478215121967175e-05
8.4016038575676984948e-05
0.00010698595493102307013
0.00010669985327325264869
0.0001064205770011694875
0.0001061496978931469892
0.0001058862025307777616
0.00010562719890691449559
0.00010537061601520889757
0.00010511666034213827106
0.00010486746629748011791
0.00010462480777836383108
0.00010438944637792762853
0.00010416044220801126251
0.00010393590464526990898
0.00010371319905950767521
0.00010348921089435872357
0.00010326155315557989354
0.00010302941380556916197
0.00010279482243440252816
0.00010256132196779865024
0.00010233244323629831331
0.00010211023036264447019
0.00010189481944461514708
0.00010168570596545806173
0.00010148286188257956276
0.00010128655023592980948
0.00010109691232931171606
0.00010091251337301584967
0.0001007313825804287443
0.00010055062963252426418
0.00010036863934971954114
0.00010018388782433631915
9.9996632947045818621e-05
9.9807586082302225368e-05
0.00014157216311439375618
0.00014078730571534219386
0.00014002186828199425722
0.0001392685412922834928
0.00013852155735863527558
0.00013777666560346157865
0.0001159666074846654976
0.00011571678602157556032
0.00011547327987107212888
0.00011523657607868091233
0.00011500471465196224056
0.00011477418812230997548
0.0001145429572278881022
0.00011431233438745522452
0.00011408585482466800348
0.00011386637610997688659
0.00011365460039305456106
0.0001134492721725828833
0.00011324790615266713822
0.00011304721733214525821
0.00011284430288439432899
0.00011263757508642392908
0.00011242769824135577929
0.00011221762776184928485
0.00011201123715753889592
0.00011181105107735326133
0.00011161737657797927482
0.00011142853758431128591
0.00011124223944133095575
0.00011105752319283598297
0.0001108747582071022825
0.00011069458020636223806
0.00011051670560848458858
0.00011033992983019619868
0.00011016261444964109027
0.00010998349641685406888
0.00010980290250887305857
0.00010962205430223270189
0.0001094439812158831915
0.00010927059493038983968
0.0001367925884444292522
0.00013615023744937963281
0.00013553500987304329664
0.00013492430851919020056
0.00013430355702107057655
0.00013366795798564037922
0.00013302444933305484619
0.00011253800247361670157
0.00011229215793194246848
0.00011205490812429666264
0.0001118240122658486341
0.00011159645078741906434
0.00011137202116378405357
0.00011115547846831583245
0.00011095411014181138371
0.00011077082343208990013
0.00011060161170340557354
0.000110436997574632503
0.00011026649387612272812
0.00011008244468900993374
0.00010988246355224757448
0.00010966963423907362374
0.00010945242698865207233
0.00010924221591368089119
0.00010904915336180236206
0.00010887815663130162125
0.000108726414412289304
0.00010858652585207391439
0.00010845176045152337535
0.0001083194413039092048
0.00010819070028055831931
0.00010806753644302977504
0.00010794972037196117181
0.00010783517142051153397
0.00010772191889741763689
0.00010761005406089426491
0.00010750178570408940883
0.00010740044833366986662
0.00010730907775048184626
0.00010722861118154928314
0.00010715600170205973269
0.00010708347508045512348
8.0575114451039070664e-08
8.0561965905151526409e-08
8.0547870019862875578e-08
8.0592763612175949576e-08
8.0623087778232356618e-08
8.0738130388825762643e-08
8.0837332441108591359e-08
8.0968650197684310812e-08
8.125780428139395608e-08
8.1457733983977698625e-08
8.165262610460092242e-08
6.4750033177833717642e-07
6.3055379954949595677e-07
6.172492652220748654e-07
6.0691790465889539344e-07
5.9906561954296867959e-07
5.9334713327297985118e-07
5.8938237321344598263e-07
5.867705191363404706e-07
5.849572110042183425e-07
5.835563730222664225e-07
5.8235805141296446037e-07
5.8138020560573108584e-07
5.8065916606745675598e-07
5.8021707695497847982e-07
5.7991788727449079946e-07
5.800313707449649806e-07
5.8116327072804080673e-07
5.8226401377974245229e-07
5.8291218205349669235e-07
5.8322111538616478103e-07
5.8330053860536770565e-07
5.8323365217492974869e-07
5.8304342477429117842e-07
5.8278715190175596853e-07
5.8252292613209550673e-07
5.8236604545229335209e-07
5.8251416426543244831e-07
5.8361094350971171329e-07
5.8734536853276636726e-07
5.9175614900139194604e-07
5.9518795953563471014e-07
5.9743377852720878134e-07
5.9856786459442651988e-07
5.987998891431968584e-07
5.9848869588022915969e-07
5.9801998237872716305e-07
8.4654017159257368212e-08
8.4678477816389236257e-08
8.4714003337898844265e-08
8.4752052251348338578e-08
8.4791016666497191755e-08
8.4823358756724590239e-08
8.4839992482819230316e-08
8.4837419690256960879e-08
8.4835687535109102823e-08
8.4814159531866283289e-08
8.4807052705502665078e-08
8.4847318908592397598e-08
8.4849881069409334556e-08
8.4923529713435891983e-08
8.4956033775045030347e-08
8.5067328427281510591e-08
8.5157944797596500559e-08
8.5281924262591686176e-08
8.5554839999090554041e-08
8.5737331837240523433e-08
8.5908216170574747229e-08
6.9800826647177548554e-07
6.7272978363136985851e-07
6.5178303653584112109e-07