/*--------------------------------*- C++ -*----------------------------------*\
  =========                 |
  \\      /  F ield         | OpenFOAM: The Open Source CFD Toolbox
   \\    /   O peration     | Website:  https://openfoam.org
    \\  /    A nd           | Version:  12
     \\/     M anipulation  |
\*---------------------------------------------------------------------------*/
FoamFile
{
    format      ascii;
    class       volScalarField;
    location    "0.0071";
    object      p;
}
// * * * * * * * * * * * * * * * * * * * * * * * * * * * * * * * * * * * * * //

dimensions      [1 -1 -2 0 0 0 0];

internalField   nonuniform List<scalar> 
106891
(
99756.571298632363323
99752.453222618234577
99750.428711092303274
99751.053640926125809
99754.6432283573522
99761.274640937452205
99770.7076319714688
99782.394033401928027
99795.541716797146364
99809.237093966308748
99822.289120438421378
99649.295562579587568
99654.233896885241847
99663.338655750631006
99671.711843521581613
99675.198987236406538
99673.93694721427164
99671.54186057044717
99671.74698813870782
99674.56514789898938
99677.025343061934109
99674.721236491168384
99664.549724092154065
99647.595114026204101
99628.678790133461007
99613.167152646085015
99605.053695714232163
99605.028635280075832
99610.359220106198336
99616.470454368216451
99619.587596787736402
99618.200917810972896
99613.220300027387566
99606.738510289113037
99600.082019972440321
99592.519118630938465
99581.688395988385309
99565.78658384452865
99545.69103490615089
99525.710160256130621
99512.339427166283713
99510.681706464049057
99521.78659345608321
99541.603151926959981
99562.879235626445734
99579.457709416135913
99588.570980157601298
99591.555639612415689
99592.214590301242424
99769.879357028199593
99780.851129290254903
99788.100302015751367
99791.584471188063617
99791.746310861199163
99789.309308070136467
99785.104898818055517
99779.937605846542283
99774.510247363941744
99769.49657398214913
99765.544607495685341
99763.229332976421574
99763.084540633892175
99765.60602876698249
99771.163610793970292
99779.835751285820152
99791.32707998220576
99804.982806785701541
99819.947625730128493
99835.024711094185477
99686.825314099594834
99692.365823978150729
99694.677336284556077
99691.9115684942808
99686.043059475676273
99682.211817981384229
99683.679833837450133
99689.667340602274635
99695.780701865034644
99696.583254912038683
99688.949034736506292
99673.435778291372117
99654.793895699171117
99639.15148367988877
99630.502447763283271
99629.517003154760459
99633.52363257703837
99638.232568715422531
99640.219934971784824
99638.518658244385733
99634.491592140460853
99630.690249127233983
99628.361567307350924
99626.336155244294787
99620.831610050969175
99607.953375582466833
99586.894416288312641
99561.820369771754486
99540.288002084722393
99529.35541946979356
99532.306542384423665
99546.976157777142362
99567.374242408928694
99586.866673702694243
99601.471542706043692
99610.769635392833152
99786.593936904828297
99796.155683101926115
99802.390289583127014
99805.254287717893021
99805.185586036968743
99802.910040079892497
99799.180190564075019
99794.707875368345412
99790.046449717090582
99785.644246242067311
99781.982341149618151
99779.525660703380709
99778.692321129783522
99779.946572701461264
99783.853611546437605
99790.896308085255441
99801.209460535785183
99814.357035500812344
99829.466515764856013
99845.272735987367923
99714.978861176059581
99717.754339309991337
99714.431018073664745
99705.7315104190493
99696.212086080777226
99691.848331929097185
99695.418897006238694
99704.710575304779923
99713.044782639000914
99713.676559254061431
99704.45260477832926
99688.12135730679438
99670.085180636204313
99656.168359691873775
99650.101937737912522
99651.463429335068213
99656.31349541072268
99660.208766790354275
99660.811770296262694
99658.619863943487871
99655.955014972074423
99655.412390877099824
99657.977860347920796
99661.469668773657759
99661.120290460385149
99651.768955350184115
99631.616519588220399
99603.923337223153794
99576.014930295554223
99556.198268672087579
99550.03297834895784
99557.803560887812637
99575.172160936825094
99595.937100464434479
99614.904564009644673
99630.151260382321198
99811.303020753781311
99816.528959430128452
99818.731822518457193
99818.320252426856314
99816.098845506334328
99812.828356486425037
99809.078013823993388
99805.240089248865843
99801.536264248279622
99798.231745651195524
99795.763379043914028
99794.656183188199066
99795.415223317599157
99798.484103715411038
99804.21953065188427
99812.902692050352925
99824.410299474344356
99838.10938046463707
99852.981307547262986
99737.272680095949909
99729.700955817766953
99717.34523202618584
99706.73766689839249
99703.806105176277924
99709.837207103904802
99720.249829761552974
99727.317351513920585
99724.637513137640781
99711.261126412893645
99692.318097626295639
99675.236316756432643
99665.73329802385706
99665.275479635078227
99670.827813730473281
99677.08348875491356
99679.980057234119158
99678.92056219332153
99676.439734253144707
99675.919867835546029
99679.301948138294392
99686.265565854613669
99694.030019555022591
99697.773929226546898
99692.575872250745306
99675.943594431941165
99649.453636310543516
99618.970527175217285
99592.4859811784263
99576.906215289607644
99575.367134811443975
99586.541558492652257
99605.628283880927484
99627.36151429808524
99821.809665662061889
99828.175581018280354
99831.978191309273825
99833.056984937487869
99831.715796599397436
99828.649772813630989
99824.681211044531665
99820.471759747408214
99816.533295426590485
99813.117485064547509
99810.29222851616214
99808.272440398752224
99807.457714200703776
99808.334237754432252
99811.330191005647066
99816.585880876576994
99824.122968800220406
99833.74969460075954
99844.966204033073154
99857.161903347325278
99749.957379506216967
99740.149030216634856
99727.032907009939663
99717.872344500283361
99717.178724255340057
99724.103039992784034
99732.73244371607143
99735.715565069942386
99728.611405778181506
99712.132795733356033
99692.369748797616921
99677.755289968001307
99673.471435920131626
99678.391650603793096
99686.937778985069599
99693.313412015340873
99694.841173237728071
99692.812553055060562
99691.131538873130921
99693.29314296595112
99700.303605571534717
99709.878505852044327
99719.039457020204281
99724.816303176252404
99724.12254847708391
99714.256791302890633
99694.430587727139937
99666.707434316951549
99636.80780620589212
99612.374549132990069
99599.961390728174592
99602.162587502491078
99616.787509425572352
99849.4721127950761
99851.079439091568929
99849.940467564258142
99846.500656786141917
99841.445519955886994
99835.617556216791854
99829.745281097013503
99824.420214441721328
99820.165341530562728
99817.238114925276022
99815.761896841067937
99815.880472171935253
99817.693447042242042
99821.274080316754407
99826.50563450185291
99833.101511256478261
99840.641379857857828
99848.748909724803525
99857.243146631488344
99745.391955582657829
99733.99241815537971
99727.643680696171941
99728.31505076828762
99734.016052491657319
99738.748128343358985
99737.007709212091868
99727.065871951155714
99711.245622005226323
99695.316739533111104
99685.683498494458036
99685.196431770789786
99691.47862015957071
99698.891266624865239
99702.775692026116303
99702.632960761678987
99701.468544518589624
99702.987634913122747
99708.906335841908003
99717.701482049873448
99726.126295903668506
99732.785343407420442
99738.338010923092952
99742.620933384911041
99742.452433317768737
99733.375248105410719
99712.843746626778739
99683.406102073160582
99652.673262832890032
99630.243041535824887
99622.775770692082006
99631.2932318301755
99876.524049316707533
99875.331600445977529
99871.091425462756888
99864.406799220712855
99856.191386712322128
99847.430795718231821
99839.052302320720628
99831.777227324724663
99826.194781891739694
99822.723185242139152
99821.480392061464954
99822.397960491201957
99825.255447460061987
99829.616598704975331
99834.911247799682315
99840.630461866268888
99846.188993193325587
99851.211555971676717
99855.864393847266911
99736.275570867277565
99733.043825069529703
99734.142785394811654
99736.46882900116907
99736.403704377284157
99731.310299039731035
99722.24182757253584
99712.365195625752676
99704.697529403332737
99701.490398616282619
99702.150574646948371
99704.01424673141446
99704.829097291192738
99703.875947241482208
99703.18495015022927
99705.917057288941578
99713.573166188492905
99723.495394436075003
99731.824303289249656
99735.835593655952835
99736.156563617158099
99737.674764376948588
99744.208056479270454
99752.529705330045545
99754.624423756366014
99743.956411901701358
99720.232419863546966
99689.862466134305578
99663.116639174346346
99649.27213457718608
99904.165738453419181
99896.641308924197801
99886.884026353189256
99875.781185662708594
99864.379808610232431
99853.703177939358284
99844.573983994225273
99837.634757652122062
99833.295172396858106
99831.662618321803166
99832.500784631673014
99835.330254924847395
99839.524904060759582
99844.294170130422572
99848.928766104188981
99852.852138115558773
99855.839325593609829
99858.082235995796509
99733.352267225156538
99733.654324374889256
99732.389028763835086
99728.269118883210467
99722.55310054673464
99717.152453469476313
99714.322437672948581
99714.782358107593609
99716.499364548712038
99715.927731836054591
99711.420584843173856
99704.620961125358008
99699.549650391869363
99700.488467105387826
99709.71392236869724
99724.33615907865169
99737.460774114617379
99743.122499709905242
99740.188461983183515
99732.307914509321563
99726.712857379563502
99729.157470390608069
99738.890363712635008
99748.314215416568913
99748.763386725040618
99736.294956390876905
99714.907136081674253
99693.749903571457253
99936.412942527327687
99926.550533657849883
99915.041484211746138
99902.75037826874177
99890.497956386912847
99879.094531026450568
99869.192108351329807
99861.207026211952325
99855.42265652876813
99852.031052570571774
99850.952243180334335
99851.797257412254112
99854.072421129691065
99857.136351132605341
99860.377520387075492
99863.270721369932289
99865.533153831987875
99867.18497620067501
99729.898860761357355
99724.267143343298812
99717.375966695763054
99711.335260062929592
99708.172289854919654
99709.029005613119807
99713.115178595035104
99716.859558945521712
99716.569836936003412
99711.080731773268781
99703.204449744807789
99699.44484451135213
99704.345788150312728
99718.175010852603009
99734.834116494515911
99746.9610548428318
99747.725444276889903
99736.476972287724493
99719.590378901863005
99704.681460276638973
99697.875227032767725
99701.308316354232375
99711.206374338842579
99720.807523058960214
99724.989141271667904
99723.033455046723248
99718.314264084212482
99959.602728898404166
99948.743738902718178
99937.764146559042274
99927.057387647539144
99916.89133815637615
99907.447998135816306
99898.830535259854514
99891.1958983590157
99884.789217585683218
99879.860230824211612
99876.624949587479932
99875.140587752510328
99875.250053451905842
99876.752024328525295
99879.211273358683684
99882.084320857597049
99884.840351670165546
99732.651494098114199
99723.298669046809664
99712.08744737476809
99702.264254560053814
99694.975941866723588
99690.877599197236123
99690.226003632531501
99692.358556896229857
99695.613134844592423
99698.523720698649413
99700.514464353807853
99702.962903503663256
99707.943757155750063
99717.284152955791797
99729.386414152832003
99739.85696454643039
99742.781734215415781
99734.798204685997916
99717.198557609008276
99694.819123350593145
99674.010442300728755
99659.806009451844147
99655.201294618920656
99660.953900906446506
99674.938363146968186
99693.277445748011814
99711.266795102055767
99986.301931214868091
99978.734509272806463
99971.199212888765032
99963.326226922712522
99954.835072076646611
99945.645193588992697
99935.933041520183906
99926.142916964774486
99916.953190579399234
99909.124234652132145
99903.375240558743826
99900.232710985219455
99899.835953779504052
99901.762146121967817
99905.314083504024893
99909.533147879061289
99732.618247817881638
99716.56760659563588
99700.612329168405267
99688.122288846876472
99678.395617391972337
99669.875581242027692
99662.559536507789744
99658.593972473463509
99660.611018440744374
99669.20550163066946
99682.924751354948967
99698.658973981204326
99713.693736344852368
99725.820691290282412
99732.677665919763967
99733.150460412638495
99726.035749676579144
99711.132329610918532
99690.464363452862017
99668.020211035764078
99648.289177071128506
99634.228454208845505
99627.900309278746136
99631.210865558954538
99644.24102094535192
99664.660027533871471
99688.187167624520953
99709.906243543868186
100013.72621659253491
100009.10284813719045
100003.12031712157477
99995.276342797893449
99985.464968617234263
99974.001268763997359
99961.642742640411598
99949.488077608941239
99938.754770594838192
99930.492317757132696
99925.365419896057574
99923.603082202331279
99924.864094364093035
99928.361404257870163
99932.861835004776367
99712.330037553227157
99693.898657869096496
99679.479857960570371
99666.754921812869725
99652.758156076582964
99638.516020898998249
99629.09723198316351
99629.680161409705761
99642.541921791838831
99664.685533007068443
99689.432763764125411
99709.946960428176681
99722.142042421808583
99724.771984263701597
99718.981767118282733
99706.612966802698793
99689.586782275917358
99669.674691589840222
99649.636034097755328
99632.136890240595676
99619.545922057834105
99614.470334722369444
99618.107010173480376
99629.914729895404889
99648.008488662308082
99669.660330632934347
99690.458251333824592
100038.28617394118919
100033.25430622159911
100025.40988032791938
100014.73928540981433
100001.82341878987791
99987.709805336155114
99973.755407949123764
99961.341970317473169
99951.629960112026311
99945.375705797458068
99942.822037251506117
99943.559041496788268
99946.67013811734796
99950.843777909627534
99688.355442994652549
99673.419678456135443
99658.485992362431716
99639.991987996312673
99620.111291558670928
99606.201667737957905
99605.83002491555817
99621.490444973474951
99648.176285059729707
99676.35206288495101
99697.303751116080093
99706.610929180969833
99705.115171271070722
99696.465033697211766
99683.939096280417289
99669.637783170241164
99654.676540471657063
99639.48148792576103
99625.040069593916996
99614.234720207532519
99610.159139914569096
99613.638397531758528
99623.864603104171692
99638.40916331212793
99654.795227629016154
99670.213600027491339
100058.61256584916555
100050.17546406055044
100038.35254879679997
100024.00291830289643
100008.43512408308743
99993.17798722567386
99979.689964750199579
99969.160933644365286
99962.282390121297794
99959.207451414680691
99959.442330871694139
99962.085012654963066
99965.91121834727528
99667.730540471777203
99651.930219742527697
99631.808256653122953
99610.078061394640827
99594.938286215285189
99594.337866983012646
99610.053895532546449
99636.028695490094833
99661.575165592497797
99677.930514924839372
99682.15989966064808
99677.24040167259227
99668.802630532314652
99660.743365469694254
99653.917078127502464
99646.791634586537839
99637.588194647323689
99626.712858868966578
99617.477794408696354
99613.208618734628544
99615.516617557339487
99623.14258092547243
99633.315104051755043
99643.483669400084182
99652.243272270774469
100069.75198457979423
100056.69280094435089
100041.08812045275408
100024.47752459612093
100008.48343786103942
99994.545209751668153
99983.719350807703449
99976.586101129141753
99973.171520752250217
99972.987527582154144
99975.199137927105767
99978.684380354403402
99644.568433270367677
99626.715107606010861
99608.038847439587698
99595.379374619733426
99595.43665111597511
99609.016946041723713
99629.547740074456669
99647.569219871700625
99655.947363608967862
99653.955273321320419
99646.931625892408192
99641.216757185058668
99640.483556929015322
99643.055266930765356
99644.507416930850013
99641.349316342864768
99634.08201231349085
99626.059981311744195
99621.212852630618727
99621.556391260921373
99625.83838034409564
99631.254766903817654
99635.44119727089128
99638.220206426587538
99623.825264114828315
99612.248756370769115
99605.002736397887929
99606.546798568349914
99616.113346868296503
99628.49030935963674
99636.458253597505973
99635.708799915009877
99628.341161427480984
99620.741169396613259
99619.24930462212069
99625.729813951431424
99636.578141486752429
99645.232164691828075
99647.299715133092832
99643.106183310854249
99636.266815713635879
99631.156259385184967
99629.692592225386761
99630.811919649699121
99631.846676180022769
99631.031248548271833
99629.399541094389861
99620.589282752131112
99623.427261079516029
99628.21090112789534
99631.203984786305227
99629.125761551331379
99620.820049680623924
99609.831932782908552
99603.225103177363053
99605.850171425248845
99617.802348066747072
99633.942003251999267
99646.980477917721146
99652.433979604000342
99650.465889939878252
99645.065081869979622
99640.526612756118993
99638.31468852366379
99637.188629508193117
99634.893514003473683
99630.519032144613448
99626.305935110067367
99625.505304754493409
99612.095060939362156
99600.275748792832019
99595.68948077011737
99601.698919340036809
99616.705061822169228
99634.727465579329873
99648.85981752895168
99655.2437222507142
99654.622306898905663
99651.002381059384788
99647.955344319954747
99646.13702515285695
99644.039092813181924
99639.82391581547563
99633.609566959625226
99628.69099770183675
99606.043447636940982
99621.691478286069469
99638.431432438417687
99650.571180590137374
99655.709029231045861
99655.722028092917753
99654.148830985534005
99653.225484949274687
99652.769225036361604
99650.86817922523187
99646.082983706830419
99639.694771260401467
99635.74912996472267
99631.264586690493161
99644.563008775643539
99652.656974435420125
99655.200922478368739
99654.962547049872228
99655.163550996978302
99656.741699393081944
99658.262497223433456
99657.457209485568455
99653.406391484255437
99648.268286030594027
99646.448617012807517
99539.591427886523888
99526.186886030453024
99518.152281545757432
99519.548133446543943
99529.865296734060394
99545.560120308800833
99561.833299003788852
99573.99739494775713
99576.731591872347053
99566.489090134244179
99543.158748906105757
99512.523058664388373
99483.671280522379675
99464.269095182389719
99456.847416413103929
99458.357711856762762
99462.689229467388941
99464.766274550522212
99462.08479905060085
99454.798209029395366
99554.920375459289062
99538.437527699526981
99520.618314013219788
99508.94629830577469
99508.959270211635157
99520.226692032549181
99538.224350500458968
99557.325292298279237
99571.808795642500627
99575.688996463315561
99565.077610540465685
99540.487734393551364
99508.652704387626727
99479.611410135621554
99460.961121839514817
99454.613311223743949
99456.608679017255781
99460.544561116708792
99461.844406713003991
99458.997829983345582
99452.687340623961063
99443.067774020179058
99576.607195913355099
99569.749841460434254
99557.341776006418513
99537.374461438856088
99515.324250115620089
99500.169579038920347
99498.673075751357828
99510.757782405809849
99531.191490440352936
99553.245739553021849
99570.14698489397415
99575.2233403117134
99564.201814980406198
99538.332639152242336
99505.520701687346445
99476.311343321533059
99458.37707304226933
99453.024586723186076
99455.302758594261832
99458.665166507664253
99459.131402732862625
99456.076910649746424
99450.552634820909589
99442.894522772417986
99431.798637700951076
99416.292239142683684
99584.323712439319934
99579.482649302168284
99573.450995613457053
99559.64582091513148
99536.486066966084763
99510.574618446204113
99492.214325029679458
99489.116870663419832
99501.929497270495631
99524.755698924549506
99549.731174209053279
99569.014250427338993
99575.227766965239425
99563.779224262892967
99536.7233870637574
99502.976527586492011
99473.641897936089663
99456.402577139378991
99451.817122847089195
99454.355636246458744
99457.061462299825507
99456.623374367045471
99453.339499735433492
99448.742887575295754
99443.018755757337203
99433.914226507782587
99419.56956893640745
99400.085247155773686
99591.559774645764264
99585.427535514594638
99582.003734203972272
99576.694921982023516
99561.860741620403132
99535.886127525009215
99506.254532966035185
99484.959070055308985
99480.46581759233959
99493.897572771136765
99519.037115048136911
99546.946964116083109
99568.488376986337244
99575.714899152866565
99563.83106521469017
99535.631609657997615
99500.864347996059223
99471.350455144303851
99454.792113826202694
99450.946207596891327
99453.599694142787484
99455.724411907955073
99454.411256170249544
99450.814093679116922
99447.056913564942079
99443.009904842838296
99435.82956633559661
99422.648273625294678
99402.5727579141967
99378.714836179322447
99598.102243651155732
99590.93723190484161
99586.213660060893744
99584.218492461790447
99579.657484597308212
99564.008718913260964
99535.447206203229143
99502.576790700666606
99478.699711967099574
99473.100655086178449
99487.079933816785342
99514.313629974669311
99544.916307017978397
99568.577339815179585
99576.563963144944864
99564.230926458985778
99534.902111049450468
99499.063463348182268
99469.291539116791682
99453.37106674129609
99450.268718950872426
99453.092048023579991
99454.720778030517977
99452.586013368141721
99448.728089670461486
99445.674523110705195
99443.14660245142295
99437.765912591363303
99425.431099678127794
99404.911754423839739
99378.977721466129879
99354.358447877486469
99597.216095829731785
99590.47851144411834
99586.962730864412151
99586.128000509474077
99582.031519985976047
99565.812342822522623
99535.219313165347558
99499.59191662305966
99473.496023953557597
99467.071148430404719
99481.623945681654732
99510.700318789778976
99543.605181969760451
99569.06009665489546
99577.613898436407908
99564.905623026439571
99534.499158036982408
99497.69646112267219
99467.716638222977053
99452.134219699175446
99449.781142272448051
99452.818326398977661
99454.012479960088967
99451.187486288079526
99447.088685234019067
99444.605303702002857
99443.278013144605211
99439.294159685319755
99427.82121728801576
99406.866764402104309
99379.198023031101911
99351.731329560032464
99334.600423202311504
99309.254661696526455
99334.568654077811516
99373.364449044223875
99409.534559861262096
99428.82014315619017
99420.262527006241726
99596.437568803594331
99590.09148506069323
99587.270624791330192
99587.436418813071214
99583.85125711823639
99567.25078913535981
99535.204391361243324
99497.489866570831509
99469.743201406294247
99462.727049614812131
99477.803942132930388
99508.287508565088501
99542.902061703833169
99569.619042792532127
99578.640367821470136
99565.578675243421458
99534.269538023276255
99496.671051953118877
99466.481170618033502
99451.224069064090145
99449.39195576957718
99452.645081420894712
99453.582733197516063
99450.313625028124079
99446.003325827987283
99443.93950164160924
99443.412635150700225
99440.432318289080285
99429.534797907646862
99408.387844029493863
99379.346383486263221
99349.885702521918574
99330.768536857154686
99331.904301759583177
99311.255831500835484
99306.886583138475544
99332.44039829945541
99372.618581362607074
99410.858844147209311
99431.499506203370402
99422.292601192806615
99596.008779282448813
99589.889611089194659
99587.382104517353582
99588.133528275473509
99584.911298712380813
99567.935247439163504
99535.073580342985224
99496.229909889603732
99467.618066785304109
99460.350596463118563
99475.868015729807667
99507.078894258389482
99542.709139140977641
99570.090275178707088
99579.339245391049189
99566.01760558206297
99534.176315799923032
99496.071010466825101
99465.766707121307263
99450.793931281557889
99449.160304893681314
99452.56168442798662
99453.396966870874166
99449.866848623845726
99445.458754945066175
99443.554674179540598
99443.589111037144903
99441.026257266581524
99430.433893788416754
99409.219384699157672
99379.35693506593816
99348.854032158997143
99328.610430235567037
99329.306279779193574
99355.151791395488544
99726.443695218753419
99727.2979687047482
99728.987503647338599
99730.739933636010392
99731.874270546904881
99732.125850765689393
99731.756936195088201
99731.418043744924944
99731.869076828021207
99733.798591767277685
99737.418954133929219
99588.601485560982837
99601.545448024306097
99613.328473676752765
99622.476661698237876
99633.905772563724895
99653.20005724208022
99679.139801355544478
99701.90277258635615
99709.03484010383545
99694.567002196141402
99665.436993239360163
99639.150294956198195
99630.407146203986485
99643.814463634174899
99669.829513380173012
99691.920758048159769
99698.422119887167355
99686.913535546409548
99663.447505656629801
99637.396748388127889
99614.538398159871576
99595.349620384760783
99577.632877063922933
99561.117713206112967
99548.855025105061941
99545.509302527862019
99554.593880271844682
99575.389131449817796
99602.525082423831918
99627.892272648241487
99645.217258215110633
99652.113594278431265
99650.048642991008819
99641.782007504094508
99629.194539438918582
99612.01618764687737
99716.307514592059306
99728.778764079586836
99738.137616818523384
99743.98202371186926
99746.50070282483648
99746.396607546761516
99744.702415266699973
99742.56528443886782
99741.06299637084885
99740.921324746785103
99742.331397076835856
99745.019482258547214
99748.358402621437563
99751.541403517883737
99753.924815367048723
99755.317386455019005
99756.019910195289413
99756.702543045947095
99758.109527958775288
99760.853452394207125
99764.956711189443013
99599.226707634312334
99610.606892090145266
99623.712373877118807
99637.08422884970787
99654.320608374953736
99678.353904053219594
99706.771022708664532
99729.410105035509332
99734.665127652144292
99718.825275546405464
99689.888394520181464
99665.362748565996299
99660.293053762041382
99678.345039641848416
99708.931877388662542
99734.302587848738767
99740.697210883663502
99724.615928080092999
99692.87780961500539
99656.465498094083159
99623.37494643968239
99596.512138734862674
99575.817045534495264
99561.772181395732332
99556.459630796904094
99562.408208174456377
99580.307957886543591
99606.691764241681085
99634.995502759076771
99658.509254410222638
99671.92155345978972
99675.014049213379622
99670.481165106379194
99660.951525579657755
99646.566898242977913
99626.137427118359483
99732.158469332920504
99741.728796473267721
99748.885041759713204
99753.460140906958259
99755.737768698978471
99756.390834296907997
99756.375422468874604
99756.613878593721893
99757.774703285191208
99760.222831039136508
99763.824465959638474
99768.025200028248946
99772.209012636361877
99775.820376490199124
99778.473253461823333
99780.161441400152398
99781.287845194907277
99782.527830153092509
99784.481998433315312
99787.539583364414284
99791.511248702634475
99622.345325116897584
99639.35061228730774
99659.291718657972524
99682.28775787455379
99708.413148346502567
99734.341164872472291
99752.850008050358156
99755.502218660520157
99740.538259776090854
99715.64889637104352
99695.175615655098227
99692.18455558399728
99709.613071802727063
99737.662523804276134
99760.052952722544433
99763.322828660689993
99743.785260747448774
99707.88990565414133
99665.969135726118111
99627.001022752054268
99596.240209017429152
99575.442138967802748
99565.940410122188041
99568.984793830910348
99585.289433025682229
99611.616952701471746
99641.725100120907882
99668.752517326967791
99686.36378765371046
99692.949636593475589
99690.773470556581742
99683.395481720086536
99672.744954674941255
99657.69835670516477
99756.9948684299452
99761.311984238345758
99764.536166000267258
99767.080038027605042
99769.477695217297878
99772.200838933043997
99775.661182680734782
99779.984101188427303
99785.016344402713003
99790.418000065066735
99795.566102153621614
99799.818394946603803
99802.840173404765665
99804.623227960750228
99805.48475631600013
99806.032399866177002
99807.030112737120362
99808.973069644212956
99811.943944664715673
99815.374110671429662
99635.565995210126857
99659.286441176998778
99687.358911308678216
99715.156206829327857
99739.958650087661226
99759.270763020162121
99769.960021545630298
99769.312108667218126
99757.292120167898247
99739.579937137343222
99725.356121203862131
99722.691513205732917
99733.445280102459947
99751.376854053669376
99764.524109205769491
99762.597125919521204
99742.119044663850218
99707.131682939769235
99665.833176954591181
99626.685592087131226
99595.801152811021893
99577.283752854986233
99573.310360598727129
99584.76341815086198
99610.006614784273552
99643.058495138553553
99675.450436931467266
99699.100208458243287
99710.390681167380535
99710.443747880563024
99703.51657193605206
99693.464874067009077
99681.614025606497307
99666.028322553291218
99778.18397947595804
99780.050096380437026
99782.410938299377449
99785.492122859344818
99789.599083352411981
99794.863146039177082
99801.142563293979038
99808.127138603333151
99815.198203794992878
99821.576555621897569
99826.579453171158093
99829.742829288748908
99831.000201309798285
99830.76947534091596
99829.811846097843954
99828.9667733458773
99828.948894607878174
99830.07288632899872
99832.251405713454005
99834.697088539542165
99681.626938891407917
99717.165039304629317
99747.543387092329795
99767.49981833343918
99776.675978091428988
99777.550364511771477
99773.1774660700612
99765.605760284888675
99757.070143600256415
99749.638759257941274
99745.934309615913662
99746.825333321176004
99750.182577311177738
99750.487917488600942
99742.277495899470523
99722.749166660898481
99693.043077596332296
99657.839976638890221
99623.400121810860583
99595.87639673727972
99581.071627429511864
99582.449728591076564
99600.465143271867419
99631.97316368369502
99668.712803530361271
99701.901868283675867
99723.100200693574152
99730.291449519761954
99726.942253814748256
99717.621151915140217
99705.903566433873493
99692.619310802750988
99808.992703897383763
99810.857974630882381
99814.514390207303222
99819.827253556723008
99826.550432845891919
99834.270995233906433
99842.277799853603938
99849.745975694488152
99855.84837482025614
99859.840681805537315
99861.337230379023822
99860.484792131581344
99857.911766914243344
99854.640193034836557