/*--------------------------------*- C++ -*----------------------------------*\
  =========                 |
  \\      /  F ield         | OpenFOAM: The Open Source CFD Toolbox
   \\    /   O peration     | Website:  https://openfoam.org
    \\  /    A nd           | Version:  12
     \\/     M anipulation  |
\*---------------------------------------------------------------------------*/
FoamFile
{
    format      ascii;
    class       volScalarField;
    location    "0.0071";
    object      pMean;
}
// * * * * * * * * * * * * * * * * * * * * * * * * * * * * * * * * * * * * * //

dimensions      [1 -1 -2 0 0 0 0];

internalField   nonuniform List<scalar> 
106891
(
98818.802381140820216
98819.450265844658134
98820.133575819330872
98820.852562710293569
98821.607529269560473
98822.398614451871254
98823.226172109338222
98824.090520103520248
98824.991304560055141
98825.92767036454461
98826.891241996214376
98804.191598478981177
98804.167943762528012
98804.142766523596947
98804.115326524886768
98804.087096339106211
98804.060397407301934
98804.036871446776786
98804.016482764389366
98803.998064362589503
98803.980875572218793
98803.965445995985647
98803.953947625006549
98803.948720738088014
98803.950572058165562
98803.958450854421244
98803.969559586315881
98803.980262765442603
98803.987492183819995
98803.989877273605089
98803.987867125164485
98803.983112780479132
98803.977293545787688
98803.971627210383303
98803.966787564524566
98803.96347436607175
98803.962833548619528
98803.96669393996126
98803.976985332861659
98803.994678184957593
98804.018463968648575
98804.044746355401003
98804.068789950397331
98804.086365605544415
98804.095270709003671
98804.095963619678514
98804.09055361400533
98804.081403690259322
98804.069839401738136
98817.382735401799437
98817.826549398669158
98818.292121647464228
98818.781632397643989
98819.297196819505189
98819.840762184860068
98820.414057044908986
98821.018518613229389
98821.655213754085707
98822.324908636146574
98823.028104261087719
98823.765212559665088
98824.536486772485659
98825.342264386854367
98826.182693505470525
98827.057969206376583
98827.968183047152706
98828.912560910175671
98829.890105917307665
98830.8925755933451
98804.249015560970292
98804.218041500542313
98804.186903937355964
98804.157365733670304
98804.13141894126602
98804.109791323309764
98804.091363775500213
98804.074147238658043
98804.056944429030409
98804.040518659327063
98804.027200240467209
98804.019463696226012
98804.018351411010372
98804.022933715212275
98804.030763949180255
98804.038604513523751
98804.043781422209577
98804.045209998337668
98804.043265634958516
98804.039201145729749
98804.034113579647965
98804.028482154608355
98804.022448295014328
98804.016152326352312
98804.010450742556714
98804.007507299204008
98804.010445818727021
98804.021642219842761
98804.041092676765402
98804.06597766673076
98804.09151765088609
98804.112678270263132
98804.125933348201215
98804.130134011778864
98804.126272811467061
98804.116292711376445
98820.396353103584261
98820.898710887238849
98821.422896878328174
98821.970875209139194
98822.544587102602236
98823.145748147479026
98823.775753178779269
98824.4357031503896
98825.126431056778529
98825.848575763404369
98826.602588170411764
98827.388858279882697
98828.20762546970218
98829.059186552549363
98829.943653397509479
98830.861134183345712
98831.811671980307437
98832.794327005758532
98833.808133507656748
98834.844967557131895
98804.338225206956849
98804.301790465033264
98804.266766796383308
98804.23558728142234
98804.20987991419679
98804.18936025572475
98804.171800263124169
98804.154575087377452
98804.13634478719905
98804.118213550143992
98804.103025306554628
98804.093362219413393
98804.090156722537358
98804.092401271525887
98804.097472014982486
98804.102103627708857
98804.104001651372528
98804.102720082097221
98804.099067995484802
98804.094150180055294
98804.08868507774605
98804.082589512516279
98804.075115801984794
98804.065688697461155
98804.054902671327
98804.045144412171794
98804.040080069302348
98804.043261305181659
98804.05613293623901
98804.077002577629173
98804.101491585577605
98804.124144122950383
98804.140418193666846
98804.147915806490346
98804.146304886380676
98804.136602090205997
98823.991450528919813
98824.570646779597155
98825.173435235425131
98825.801484677940607
98826.456261535000522
98827.1389164145221
98827.850292721035657
98828.590970798642957
98829.361399962843279
98830.161950645881006
98830.992988428843091
98831.854739720030921
98832.747428299800958
98833.671081858352409
98834.625701361961546
98835.611282478988869
98836.626776392804459
98837.671398292543017
98838.73737738354248
98804.379768505721586
98804.341872358811088
98804.30967719599721
98804.283977571772994
98804.263265791771119
98804.244551419324125
98804.225208357427618
98804.204537772937329
98804.184434864917421
98804.168342396675143
98804.158809473825386
98804.155855743374559
98804.157280467334203
98804.159734081258648
98804.160282261000248
98804.157727947589592
98804.152596170213656
98804.146351750532631
98804.14020641350362
98804.134072168919374
98804.126751937365043
98804.116822186304489
98804.10362588922726
98804.087797623826191
98804.07160339973052
98804.058866635750746
98804.053629493355402
98804.058215971046593
98804.072164974495536
98804.092319543167832
98804.113768510302179
98804.131469377753092
98804.141736361838412
98804.142771048718714
98826.488605470265611
98827.096802196669159
98827.72673822370416
98828.38002273348684
98829.058102985960431
98829.762145634638728
98830.493000381946331
98831.251255070295883
98832.037327735029976
98832.851531755004544
98833.694100257212995
98834.565261858253507
98835.465145547641441
98836.393927243814687
98837.351647009141743
98838.338307780984906
98839.35394176945556
98840.397473291450297
98841.468289016163908
98842.558990294361138
98804.466983386475476
98804.426849678668077
98804.393372174716205
98804.366458337652148
98804.343768389415345
98804.322080680256477
98804.299237026410992
98804.275439617442316
98804.253194901612005
98804.235829247205402
98804.225363826888497
98804.221072095402633
98804.219721941277385
98804.217383382303524
98804.211706827918533
98804.202784071239876
98804.192469573798007
98804.182718322859728
98804.174373045229004
98804.166447835217696
98804.156795554736163
98804.143928574078018
98804.127816985463141
98804.109193034295458
98804.089521439716918
98804.071379851244274
98804.058051802072441
98804.052508690147079
98804.056232800518046
98804.068391493012314
98804.085594187621609
98804.102822947359527
98804.114974003037787
98830.208904844606877
98830.885212148015853
98831.584418121041381
98832.30784354438947
98833.056509047804866
98833.831083273151307
98834.631949405491468
98835.459283586067613
98836.313101816762355
98837.193313393683638
98838.099911527184304
98839.03292341780616
98839.99251343983633
98840.978805653285235
98841.991879154767958
98843.031912429272779
98844.098032150795916
98845.190036811327445
98846.301152318847016
98804.504868634248851
98804.4698559386743
98804.440659811079968
98804.414610807943973
98804.388974979912746
98804.362637903846917
98804.336706678412156
98804.313498428935418
98804.295242485954077
98804.282589943017229
98804.273866931631346
98804.265979276504368
98804.256053783814423
98804.243096474412596
98804.228369568969356
98804.213918676236062
98804.200792645220645
98804.188603523201891
98804.176048865730991
98804.161847194991424
98804.145628876387491
98804.127828334283549
98804.108713840381824
98804.088183759682579
98804.066719310329063
98804.046350273201824
98804.030501403132803
98804.022682730195811
98804.024600925753475
98804.034651530761039
98804.04826991110167
98804.059747884457465
98833.317606590673677
98834.035617516041384
98834.776102761155926
98835.540243764087791
98836.328884421644034
98837.142528148353449
98837.981327456946019
98838.845174879548722
98839.733856366190594
98840.6471284096624
98841.584796684706816
98842.54666813260701
98843.53273692856601
98844.54305392668175
98845.577787098984118
98846.637416263780324
98847.721388572157593
98848.829930220381357
98849.956942680859356
98804.547567995381542
98804.514900410780683
98804.484346086363075
98804.454530559683917
98804.425351999641862
98804.397834012954263
98804.373236324798199
98804.352042275335407
98804.333641858334886
98804.316481714340625
98804.298708710353822
98804.279205760540208
98804.25839320239902
98804.237858359294478
98804.218729209998855
98804.20095118386962
98804.1830944645626
98804.163767554011429
98804.142567590373801
98804.120451991417212
98804.099227071812493
98804.079553110961569
98804.05991630628705
98804.038316215330269
98804.01475331466645
98803.992189956654329
98803.975179288943764
98803.967130632139742
98803.968324149449472
98803.975501743887435
98837.171298268978717
98837.948784953579889
98838.749284345569322
98839.573401134039159
98840.421363506946363
98841.293103978285217
98842.188370146075613
98843.106808080105111
98844.04800720809726
98845.011638161697192
98845.997476635326166
98847.00548298090871
98848.035708940864424
98849.088276480135391
98850.163659211873892
98851.261341900419211
98852.381835331543698
98853.519813515144051
98804.57291766149865
98804.536802379618166
98804.501619350063265
98804.468172131862957
98804.437119780719513
98804.408556439870154
98804.381808529622504
98804.35539237591729
98804.32782078825403
98804.298874591986532
98804.269783728683251
98804.242274433912826
98804.21734396534157
98804.194757301724167
98804.172366618789965
98804.147575556140509
98804.119428982754471
98804.089441344622173
98804.060536467979546
98804.035301502648508
98804.014202400445356
98803.995130474766484
98803.974915872502606
98803.952028657688061
98803.927802370802965
98803.905930246924981
98803.890228764037602
98803.882036596100079
98840.277913389276364
98841.087797035550466
98841.919536202927702
98842.773677435776335
98843.650401388615137
98844.549559723309358
98845.470783285127254
98846.413638075871859
98847.377707511055632
98848.362646098365076
98849.368150072376011
98850.394128819840262
98851.440637048508506
98852.507738571730442
98853.595823786963592
98854.704263077641372
98855.833442785558873
98856.978316274937242
98804.575475857389392
98804.534388222440612
98804.496009565744316
98804.460631266163546
98804.427788231594604
98804.395902868665871
98804.363038790295832
98804.328180412383517
98804.291759727988392
98804.25549599956139
98804.220995231386041
98804.188497223440208
98804.1562850275659
98804.121839136263588
98804.08356794550491
98804.042090053218999
98804.000258426327491
98803.962390807442716
98803.931473046191968
98803.907990129446262
98803.890110477412236
98803.874519594945014
98803.858108477783389
98803.839601550716907
98803.820022673127824
98803.801406692800811
98803.784959532349603
98844.188553167070495
98845.047286393790273
98845.926522413632483
98846.826201760122785
98847.74615934213216
98848.686199574440252
98849.646122619829839
98850.62578019448847
98851.625078016455518
98852.643940057198051
98853.682318058883538
98854.740193639110657
98855.817503215861507
98856.914441102213459
98858.030175806416082
98859.164855966009782
98860.313776812370634
98804.627763659707853
98804.575750044721644
98804.528049516462488
98804.484218910234631
98804.443377269868506
98804.404742146201897
98804.367212751036277
98804.329617349460023
98804.29106836754363
98804.251227394619491
98804.210125375626376
98804.168065082121757
98804.125000600368367
98804.080064536305144
98804.032235392078292
98803.981552043434931
98803.929685138136847
98803.87995849570143
98803.836079885804793
98803.800796513067326
98803.774831906906911
98803.756798391026678
98803.743899825378321
98803.732829174259678
98803.72044908918906
98803.704499838058837
98803.684103057996253
98848.098962204137933
98848.998242702436983
98849.915752968940069
98850.851474955081358
98851.805401128673111
98852.777551644889172
98853.767967297506402
98854.776757834464661
98855.804065323958639
98856.850032895177719
98857.914721233770251
98858.997909477940993
98860.099432733099093
98861.218154421498184
98862.3538577115105
98863.502184788871091
98804.617964459946961
98804.558520255362964
98804.5043879779696
98804.454666551333503
98804.408373100683093
98804.365232713986188
98804.325271417706972
98804.287690465222113
98804.250646700020297
98804.211683396133594
98804.168506951449672
98804.11999499668309
98804.066233974255738
98804.007994499203051
98803.946897258239915
98803.88508713801275
98803.825039422124973
98803.769532733931555
98803.721229346876498
98803.681941455564811
98803.651871782261878
98803.629869863158092
98803.614086387169664
98803.601661011212855
98803.58919821192103
98803.573482996958774
98803.552473234769423
98803.525701784921694
98851.539770291055902
98852.467413566148025
98853.41178806804237
98854.373074880291824
98855.351497518757242
98856.347323442809284
98857.360825580661185
98858.392194347994518
98859.44149341143202
98860.5086069839017
98861.593163068537251
98862.694862138014287
98863.812545327338739
98864.945806711606565
98866.090790732952883
98804.527236018999247
98804.46845321560977
98804.413780093891546
98804.362234525135136
98804.314449994140887
98804.271625483888783
98804.233406278770417
98804.197193440893898
98804.158781537480536
98804.114163953170646
98804.061195798320114
98804.000277800252661
98803.933895675916574
98803.865460710192565
98803.798108292103279
98803.734382744281902
98803.676297858371981
98803.625412668538047
98803.582672704214929
98803.54829623826663
98803.52160328028549
98803.500886771886144
98803.483509427460376
98803.466458530179807
98803.446923047056771
98803.422796163737075
98803.393428384602885
98854.478874262160389
98855.427639326167991
98856.392508750854176
98857.373945571540389
98858.372345402371138
98859.387978482045582
98860.420971408864716
98861.471271423622966
98862.538653074065223
98863.622615852553281
98864.722651471194695
98865.837584851935389
98866.96693754302396
98868.107264396647224
98804.436139588986407
98804.377348456604523
98804.321735294128302
98804.270538355805911
98804.225379948897171
98804.185974020205322
98804.149114048734191
98804.109615594425122
98804.062603520433186
98804.005718480111682
98803.939987009303877
98803.869096040929435
98803.797374266170664
98803.727991141960956
98803.662626049554092
98803.602341783131124
98803.547916854557116
98803.500021301399102
98803.459285912758787
98803.425658474981901
98803.397817351942649
98803.373380135162733
98803.349635209873668
98803.324229499092326
98803.295746395117021
98803.263898824006901
98857.230571975975181
98858.197041541658109
98859.179597064852715
98860.178754848515382
98861.194825236147153
98862.22787598024297
98863.277706245600712
98864.343909896022524
98865.42584032578452
98866.522904560697498
98867.633983261999674
98868.758575021347497
98869.893606630401337
98804.341917673984426
98804.283387112911441
98804.228698070481187
98804.17982207404566
98804.136865952707012
98804.096565432220814
98804.053423816571012
98804.002615921766846
98803.94241737567063
98803.874695637729019
98803.803543362388154
98803.732889543447527
98803.664908824197482
98803.599907107345643
98803.537893256914685
98803.479215281608049
98803.424871793962666
98803.37634913859074
98803.334354835926206
98803.298033176964964
98803.265212259357213
98803.233497468871064
98803.201359701211913
98803.168216040634434
98803.134294015617343
98859.808219255515723
98860.790624992179801
98861.789257155483938
98862.804366004507756
98863.835964176949346
98864.883802389333141
98865.947439667812432
98867.026215714562568
98868.119485797709785
98869.226188337925123
98870.345807729434455
98871.475581476770458
98804.260002582072048
98804.203235515698907
98804.150965187902329
98804.103314777195919
98804.057585313727031
98804.008957561265561
98803.953459744108841
98803.890432365762535
98803.822380521625746
98803.75307780210278
98803.685430553043261
98803.62012727977708
98803.556042217620416
98803.492034799637622
98803.428466387849767
98803.367093217515503
98803.31016977330728
98803.259111169478274
98803.213826356193749
98803.172673383291112
98803.133625427915831
98803.095437855314231
98803.058042306191055
98803.022035490343114
98804.185734551574569
98804.130170791395358
98804.076749539221055
98804.023706178471912
98803.968063817068469
98803.90763825646718
98803.842605914484011
98803.775281979163992
98803.708598257479025
98803.644119621734717
98803.581109461607412
98803.51731195928005
98803.451102244653157
98803.383054249177803
98803.315698889506166
98803.251789423506125
98803.19320068990055
98803.140133213280933
98803.091350425616838
98803.045257644625963
98803.001106058480218
98802.959323563918588
98802.920763883477775
98804.067744250249234
98804.00652061587607
98803.943063932165387
98803.877106766667566
98803.809747626801254
98803.743120919476496
98803.67907731635205
98803.617507998264045
98803.556216634620796
98803.49227936535317
98803.424017204713891
98803.352290524038835
98803.279957915627165
98803.210227188261342
98803.145156009617494
98803.085196287647705
98803.029582049886812
98802.977233722776873
98802.927903807882103
98802.882280682271812
98802.840991171164205
98803.787677153173718
98803.72171429048467
98803.659070005116519
98803.598473317208118
98803.536952338181436
98803.471524453852908
98803.400846404503682
98803.32607667404227
98803.250307900438202
98803.176775445346721
98803.107395072700456
98803.042472016313695
98802.981461555318674
98802.923822983109858
98802.869793863894301
98802.820248231524602
98802.775629385840148
98803.532890816160943
98803.465085869524046
98803.391869508544914
98803.314962518954417
98803.237316097685834
98803.16159733562381
98803.089138649214874
98803.020146377239143
98802.954393857638934
98802.891987299153698
98802.833548240203527
98802.780050225759624
98802.731647617489216
98803.461195459138253
98803.385495230817469
98803.306982873473316
98803.228487404921907
98803.152059229032602
98803.078485396603355
98803.007514839409851
98802.93888538768806
98802.872978079860331
98802.810795254030381
98802.753305528283818
98802.700320391100831
98811.774640945659485
98811.673680121719372
98811.575447104914929
98811.475844110027538
98811.370785952807637
98811.257522744694143
98811.135019106703112
98811.00396739700227
98810.866871618636651
98810.72790081682615
98810.592050504594226
98810.46355243230937
98810.343723442216287
98810.229835156875197
98810.117365668294951
98810.002123031605151
98809.881524684722535
98809.754846218202147
98809.623225125047611
98809.488659719325369
98811.846382899282617
98811.740996239357628
98811.642067493623472
98811.547516097663902
98811.452649872953771
98811.352323505168897
98811.242656211165013
98811.122280686686281
98810.99203613444115
98810.854834655037848
98810.715559490694432
98810.579845414307783
98810.452094484338886
98810.333182228656369
98810.22023349563824
98810.108307178306859
98809.993162066879449
98809.872564318531659
98809.746191936661489
98809.615187239745865
98809.481255024351412
98809.345950850431109
98812.045199024898466
98811.928584436172969
98811.816540320185595
98811.711070579040097
98811.613668314967072
98811.522392440063413
98811.431864185506129
98811.335820208580117
98811.229628436005441
98811.111367010569666
98810.981846347291139
98810.844494208387914
98810.704811662290012
98810.569053293627803
98810.441825333196903
98810.323766493456787
98810.211483019142179
98810.099943548004376
98809.985022555643809
98809.864840644760989
98809.739230227016378
98809.60922805503651
98809.476194282207871
98809.341200537572149
98809.205445532265003
98809.070807056705235
98812.143563268939033
98812.022118266584584
98811.903949295825441
98811.790297062223544
98811.684294409191352
98811.588052453109412
98811.49948336777743
98811.412668527569622
98811.320616931436234
98811.217788091526018
98811.101623340771766
98810.972982054052409
98810.835667121966253
98810.695605865272228
98810.559642703723512
98810.432707886910066
98810.315397914149798
98810.203797434209264
98810.092450511627248
98809.977261164283846
98809.856682467114297
98809.731061690414208
98809.60157674815855
98809.469212201423943
98809.334393113778788
98809.198051258616033
98809.062355635251151
98808.929822019301355
98812.247612888022559
98812.122375464736251
98812.00153007695917
98811.883402273757383
98811.76934308570344
98811.663169004910742
98811.567571019782918
98811.480775865595206
98811.396735186528531
98811.307873313635355
98811.207962156957365
98811.093779514078051
98810.965928984194761
98810.828454019545461
98810.687802708052914
98810.551470810853061
98810.424722432595445
98810.307801013783319
98810.196529825916514
98810.085483554721577
98809.970671337650856
98809.850723795272643
98809.725964647164801
98809.597340738837374
98809.465479140446405
98809.330612855832442
98809.193705318262801
98809.05700569228793
98808.923292405772372
98808.794629176773014
98812.364134108327562
98812.233167537488043
98812.1083188214252
98811.986876557246433
98811.867507001923514
98811.751987169642234
98811.644818661239697
98811.549614437710261
98811.464880426763557
98811.383921066226321
98811.298350792567362
98811.200998927844921
98811.088229747721925
98810.960697117552627
98810.822780944203259
98810.681509392568842
98810.544793118999223
98810.418173836209462
98810.301876322700991
98810.191154002430267
98810.080129481197218
98809.964995536152855
98809.844599952630233
98809.719630581967067
98809.591204267198918
98809.45982151379576
98809.325286511302693
98809.188131699338555
98809.050789835950127
98808.916372289691935
98808.787316731191822
98808.664718314059428
98812.35575232366682
98812.225333827984286
98812.100803887326038
98811.979281180625549
98811.859495325057651
98811.743479535842198
98811.636230584714212
98811.541830255402601
98811.458721384464297
98811.379798276451766
98811.296252227941295
98811.20052652200684
98811.088505803621956
98810.960836768135778
98810.822307904832996
98810.680325508539681
98810.543191553078941
98810.416596269977163
98810.30052536506264
98810.190026729411329
98810.079180861241184
98809.964215100117144
98809.844126740485081
98809.719673109721043
98809.591898444050457
98809.461048431898234
98809.326621394793619
98809.189076062641107
98809.050903611176182
98808.915475600981154
98808.785738903607125
98808.663419211763539
98808.546676263824338
98826.619298604506184
98826.291276591859059
98825.941208342410391
98825.56877906115551
98825.180043097047019
98824.786334282020107
98812.350783191373921
98812.220846152791637
98812.096506805115496
98811.974610694902367
98811.854018989470205
98811.737025352660567
98811.629095970754861
98811.534826262839488
98811.452683517083642
98811.375207088713069
98811.293208829680225
98811.198678911416209
98811.087177209978108
98810.959424316504737
98810.820430478881462
98810.677870955056278
98810.540367685825913
98810.413886246635229
98810.298281979863532
98810.188176352690789
98810.077485558344051
98809.962441366064013
98809.842172619901248
98809.717557300857152
98809.589845837952453
98809.459181435362552
98809.324778300986509
98809.186910610136692
98809.048157904107939
98808.912058707312099
98808.781889542398858
98808.659826908129617
98808.544086885638535
98808.428458679438336
98826.933820902631851
98826.621234221456689
98826.294258319117944
98825.944776442789589
98825.572183787866379
98825.182592304481659
98824.787891496976954
98812.353370992001146
98812.223723821385647
98812.0994953410991
98811.977499624728807
98811.856646762302262
98811.739344996938598
98811.631349803137709
98811.537481743493117
98811.456060144759249
98811.37941261297965
98811.298210633773124
98811.204196274833521
98811.092830039313412
98810.964889170529204
98810.825517494085943
98810.682548336408217
98810.544875674153445
98810.41847516685084
98810.303037657213281
98810.193032988128834
98810.082435775053455
98809.96742705507495
98809.847182735407841
98809.722653589662514
98809.595177741372027
98809.464783303774311
98809.330439808880328
98809.192444680506014
98809.053453666492715
98808.91696219406731
98808.786558560328558
98808.664697906584479
98808.549493263475597
98808.43466521584196
98808.31166826201661
98819.369463399314554
98820.017447577833082
98820.699445495134569
98821.416390266706003
98822.169490208441857
98822.959862691292074
98823.788784748525359
98824.657222449663095
98825.565174325296539
98826.511810479118139
98827.488233423471684
98805.186985874199308
98805.195226417738013
98805.198999631422339
98805.199562642723322
98805.197366064938251
98805.190695474622771
98805.176773667597445
98805.154780736425892
98805.128000620636158
98805.103475571217132
98805.088307387050008
98805.084460461424896
98805.087499226807267
98805.089437709088088
98805.08305478526745
98805.066731757833622
98805.044444132669014
98805.022698381042574
98805.006993591043283
98804.999661672161892
98804.999806989813806
98805.005416512591182
98805.015461490751477
98805.029738250479568
98805.047557214653352
98805.066743543793564
98805.083631615401828
98805.093933803684195
98805.094503097119741
98805.084789546090178
98805.067033846440609
98805.044872467813548
98805.021832911996171
98805.00019758871349
98804.981185282405932
98804.965779397520237
98817.486725828392082
98817.915587242314359
98818.365559335114085
98818.83829335802875
98819.335455188716878
98819.858627376888762
98820.409251344957738
98820.988558814962744
98821.597548679696047
98822.236960905138403
98822.907410131505458
98823.609485091990791
98824.343961436490645
98825.111681607086211
98825.913740316798794
98826.75117024917563
98827.625067814282374
98828.536270472686738
98829.484592125169002
98830.469303445614059
98831.481993890542071
98805.312221927000792
98805.320851316777407
98805.325567924272036
98805.326337253121892
98805.32278766350646
98805.313227117701899
98805.295480447704904
98805.269525404655724
98805.239596357860137
98805.212958453266765
98805.196122487788671
98805.190350529665011
98805.190545015851967
98805.188101553547313
98805.175724996603094
98805.151802779670106
98805.121096120041329
98805.091469809354749
98805.069808049069252
98805.059526523531531
98805.060315155249555
98805.069857946509728
98805.085724988268339
98805.105909730191343
98805.127767902318737
98805.147723528862116
98805.161861734144622
98805.166679204441607
98805.160519427197869
98805.144129233711283
98805.12058587129286
98805.093694973082165
98805.066567061861861
98805.041055541470996
98805.018353339968598
98804.999797785916599
98820.477850382856559
98820.963887047735625
98821.471193553355988
98822.001262363715796
98822.555535837527714
98823.135319332679501
98823.74172000712133
98824.375639982783468
98825.037824475060916
98825.728899353096494
98826.449436022521695
98827.200003086254583
98827.981292246608064
98828.794084509427194
98829.639418405960896
98830.518284301942913
98831.4316412807093
98832.380203033957514
98833.3635873922467
98834.381155112409033
98835.424963807919994
98805.460244216461433
98805.463845938531449
98805.461908879151451
98805.453761382945231
98805.438534875283949
98805.415555672821938
98805.38589747165679
98805.353573725253227
98805.324713577108923
98805.304450658441056
98805.293458876491059
98805.28709281074407
98805.277630794807919
98805.25881493507768
98805.229398501920514
98805.194044311065227
98805.16057927638758
98805.136135380191263
98805.12476310209604
98805.126743427928886
98805.13944813676062
98805.159393417925457
98805.182984528481029
98805.206178415304748
98805.224409208065481
98805.233459783950821
98805.230967436902574
98805.216802975075552
98805.193460115246125
98805.165061212654109
98805.135224810277577
98805.106154590408551
98805.078948023918201
98805.05436878632463
98824.041722937297891
98824.603814444155432
98825.188396374534932
98825.796561595721869
98826.429273964633467
98827.087341776612448
98827.771405240695458
98828.481991395092336
98829.219620987481903
98829.984878324656165
98830.778404297641828
98831.60098712934996
98832.453424786639516
98833.336658628308214
98834.251570680673467
98835.198998068779474
98836.179605569253908
98837.192892898194259
98838.238298603697331
98839.30833989160601
98805.595166420418536
98805.594998829095857
98805.587049252484576
98805.570612047638861
98805.546576712804381
98805.516489802495926
98805.482611321640434
98805.448202510873671
98805.417170017593889
98805.392363172359182
98805.373825797389145
98805.358391392714111
98805.341058738486026
98805.317495374038117
98805.286732251624926
98805.252228761062725
98805.220072625990724
98805.196476794386399
98805.185475941019831
98805.187987624914967
98805.201943458581809
98805.223551746894373
98805.248068538494408
98805.270244158367859
98805.284449432772817
98805.286774946827791
98805.27592919820745
98805.253593054265366
98805.223701329930918
98805.190813303473988
98805.158507851534523
98805.128424185430049
98805.100838161713909
98805.076181966258446
98827.139343803122756
98827.752775562781608
98828.388161287875846
98829.046147812841809
98829.727309017325751
98830.432149983462295
98831.161187180201523
98831.914958670327906
98832.694018740148749
98833.498997816132032
98834.330592768208589
98835.189644732119632
98836.077034732064931
98836.993691752373707
98837.940330500263372
98838.917489551211474
98839.92561496833514
98840.964081628393615
98842.032517537212698
98843.124013152453699
98805.726399853840121
98805.710046322041308
98805.683503650769126
98805.649633384004119
98805.612166333885398
98805.574376049029524
98805.538315417987178
98805.505007722647861
98805.474752898531733
98805.447203952076961
98805.421077957420493
98805.394447352111456
98805.36567884341639
98805.334709440081497
98805.303609788315953
98805.276080515657668
98805.256331362135825
98805.247556944188545
98805.250649090492516
98805.264110250092926
98805.28432056841848
98805.306293029891094
98805.32430973504961
98805.33278079048614
98805.32814484051778
98805.309898015213548
98805.280727501842193
98805.245614538929658
98805.209088453484583
98805.174117907416075
98805.141958712367341
98805.112890757838613
98830.908540941469255
98831.589909959206125
98832.29277793012443
98833.017449825521908
98833.764233462745324
98834.533453256386565
98835.32553469054983
98836.141041061186115
98836.980711429714574
98837.845426977553871
98838.736151035453076
98839.653767022144166
98840.599103522850783