/*--------------------------------*- C++ -*----------------------------------*\
  =========                 |
  \\      /  F ield         | OpenFOAM: The Open Source CFD Toolbox
   \\    /   O peration     | Website:  https://openfoam.org
    \\  /    A nd           | Version:  12
     \\/     M anipulation  |
\*---------------------------------------------------------------------------*/
FoamFile
{
    format      ascii;
    class       volScalarField;
    location    "0.0071";
    object      pPrime2Mean;
}
// * * * * * * * * * * * * * * * * * * * * * * * * * * * * * * * * * * * * * //

dimensions      [2 -2 -4 0 0 0 0];

internalField   nonuniform List<scalar> 
106891
(
206370.33481216430664
206266.5206241607666
206168.86147689819336
206075.16131210327148
205989.5959300994873
205915.23311424255371
205860.36480712890625
205824.60240936279297
205811.7496395111084
205821.85150146484375
205842.03232574462891
485805.19920349121094
484528.36749839782715
483257.09184646606445
481984.31295776367188
480706.35071182250977
479421.91192245483398
478130.22252655029297
476829.43244361877441
475518.81815338134766
474202.10710716247559
472885.78369522094727
471575.70196151733398
470275.67741012573242
468987.43998718261719
467709.06404113769531
466433.71753692626953
465153.4382438659668
463864.59177207946777
462569.56694602966309
461275.25515747070312
459990.00136756896973
458718.79677963256836
457462.76873588562012
456223.6207332611084
455007.45573997497559
453823.03070259094238
452677.64020729064941
451574.3543643951416
450511.4916877746582
449481.68044090270996
448470.76933479309082
447461.50951385498047
446442.27931976318359
445411.84883308410645
444374.97038078308105
443334.06836128234863
442286.44116401672363
441227.23494911193848
207787.5019702911377
207528.21204376220703
207280.88118553161621
207046.65147018432617
206828.98797988891602
206633.03891372680664
206463.62277984619141
206322.64137077331543
206207.09262847900391
206109.6766185760498
206020.94140243530273
205934.1509895324707
205846.17162704467773
205760.97178268432617
205682.52023696899414
205620.08649635314941
205575.0275764465332
205551.92863655090332
205551.37430191040039
205560.28664398193359
484569.57172393798828
483284.86388397216797
482005.53160667419434
480726.08983039855957
479444.14315795898438
478158.63674354553223
476867.2737865447998
475568.89953231811523
474267.33484649658203
472969.46431159973145
471679.51156044006348
470399.12839508056641
469129.88664054870605
467871.04971694946289
466616.11456108093262
465355.89920043945312
464085.49769020080566
462807.57708930969238
461530.11017799377441
460261.31072998046875
459005.02106666564941
457761.63825988769531
456533.23881530761719
455325.89875411987305
454147.40453147888184
453003.86557388305664
451898.18814468383789
450829.71135711669922
449792.88881874084473
448774.8743953704834
447757.16535186767578
446723.84911155700684
445669.81728363037109
444600.25284957885742
443522.23701858520508
442437.60574722290039
207459.05410003662109
207209.87479591369629
206971.70804977416992
206744.83809661865234
206532.9724235534668
206342.06602478027344
206177.70486068725586
206042.21321105957031
205932.71362686157227
205841.92416381835938
205760.42885780334473
205681.1128101348877
205600.08292579650879
205519.97962760925293
205443.82936477661133
205380.07719039916992
205330.54670524597168
205300.07332992553711
205289.92458915710449
205287.45414733886719
484788.80417823791504
483469.28748321533203
482158.01242256164551
480849.22638320922852
479542.12380599975586
478238.04363250732422
476935.89570236206055
475634.40027236938477
474336.65498733520508
473048.39985847473145
471772.3049430847168
470508.27947807312012
469257.64883613586426
468020.82554817199707
466791.33956146240234
465557.67827987670898
464312.93529891967773
463060.47882652282715
461809.82121086120605
460568.99216651916504
459340.73606300354004
458124.43699264526367
456920.6313304901123
455732.48475456237793
454564.65777015686035
453422.14393043518066
452308.72885322570801
451226.00321388244629
450171.39884757995605
449135.31920433044434
448100.26373100280762
447047.40479469299316
445967.3526496887207
444864.25571060180664
443748.22760772705078
442624.6734561920166
206918.03378868103027
206689.54583358764648
206474.63292503356934
206274.39008331298828
206092.30852508544922
205932.25270080566406
205796.19758987426758
205682.46417808532715
205585.96559524536133
205499.74449157714844
205418.41141128540039
205338.71677780151367
205262.41192054748535
205191.04059219360352
205131.00296783447266
205083.22333145141602
205051.85375022888184
205038.59264945983887
205031.49906730651855
483871.8429069519043
482507.67432594299316
481145.90306282043457
479789.81203842163086
478445.00109481811523
477112.65500068664551
475791.53388595581055
474483.79420471191406
473193.80000877380371
471923.17498588562012
470671.33276557922363
469438.76840209960938
468225.11552238464355
467023.29153442382812
465820.95420455932617
464610.27631759643555
463394.35614204406738
462182.85561561584473
460982.93770980834961
459795.252197265625
458616.93343734741211
457445.43857192993164
456280.44290351867676
455125.0142936706543
453984.79227066040039
452864.92480659484863
451767.27426719665527
450690.15609550476074
449627.00656890869141
448563.91578102111816
447483.08361434936523
446373.35100555419922
445236.98835945129395
444084.54094696044922
206985.73692893981934
206731.7253246307373
206501.01356887817383
206290.92584800720215
206099.77553749084473
205927.09760093688965
205773.14513969421387
205637.93515968322754
205519.95084381103516
205415.96104431152344
205321.66995620727539
205234.06599235534668
205151.30656242370605
205074.93900680541992
205005.44239044189453
204947.31688499450684
204900.57167816162109
204868.61804389953613
204853.76845550537109
204845.15750503540039
484567.15912246704102
483140.54982566833496
481715.11905860900879
480297.54988670349121
478897.4917163848877
477520.0572509765625
476166.03447341918945
474836.93203926086426
473536.04280662536621
472265.14959907531738
471023.27570343017578
469808.05498123168945
468615.23805618286133
467436.59301948547363
466261.84710693359375
465085.38968849182129
463910.92602920532227
462746.35702514648438
461595.10160255432129
460453.61029052734375
459315.07777214050293
458173.70586585998535
457028.40280532836914
455884.34079742431641
454750.01672554016113
453630.75068664550781
452525.38683891296387
451429.09661483764648
450336.24849128723145
449238.32266807556152
448122.61186981201172
446979.722412109375
445811.17710304260254
206770.3131160736084
206523.86489105224609
206304.07977485656738
206108.88632583618164
205935.81653785705566
205782.61779594421387
205647.39355278015137
205528.04894256591797
205421.91151809692383
205325.84519577026367
205237.86789131164551
205156.70723915100098
205083.39052963256836
205017.27888679504395
204960.94766998291016
204913.42709922790527
204877.56902122497559
204856.85087585449219
204842.01975440979004
484032.95632934570312
482548.13954544067383
481071.85361289978027
479616.03228187561035
478190.18529510498047
476798.00546264648438
475440.78106689453125
474120.40058898925781
472838.74564552307129
471595.04010391235352
470384.6548900604248
469200.01956748962402
468032.24989318847656
466874.32754707336426
465725.14663314819336
464589.48969841003418
463471.34542655944824
462367.24226951599121
461266.85059356689453
460160.12172698974609
459042.84546852111816
457917.85053825378418
456793.38126945495605
455677.87365531921387
454572.81425666809082
453470.76174736022949
452361.98360443115234
451241.25518417358398
450106.46025466918945
448953.38662910461426
447777.70018005371094
446581.18404960632324
207127.87279510498047
206862.96355056762695
206626.62988662719727
206417.50329780578613
206233.12845802307129
206071.08647537231445
205929.48169326782227
205806.31775665283203
205698.96526527404785
205604.17391967773438
205519.64436149597168
205443.81941413879395
205376.86893653869629
205317.06386566162109
205265.10331153869629
205218.82448959350586
205179.87624549865723
205152.37944793701172
205128.19596099853516
483548.61708641052246
482017.88142013549805
480508.32305717468262
479033.07267951965332
477599.21942138671875
476207.70201683044434
474857.41774749755859
473548.07746505737305
472279.61947631835938
471048.95720100402832
469849.07688522338867
468672.96958351135254
467517.78446006774902
466385.11976051330566
465277.33670806884766
464192.01945877075195
463117.6758861541748
462039.50609970092773
460949.59154319763184
459850.77383041381836
458751.96465873718262
457661.03502464294434
456579.73866844177246
455501.08071899414062
454411.69364547729492
453299.49544525146484
452161.03666305541992
450999.96198844909668
449820.38009452819824
448624.09903717041016
207570.15570068359375
207316.70364379882812
207091.02535820007324
206891.34804344177246
206715.5168514251709
206561.55591011047363
206427.49526786804199
206311.16666412353516
206210.08877372741699
206122.40749931335449
206046.3563117980957
205981.18135070800781
205924.0572509765625
205874.09239387512207
205828.32889366149902
205787.13070869445801
205754.44767379760742
205721.97633743286133
483076.19244575500488
481508.75129508972168
479980.27850914001465
478501.21982574462891
477071.50211524963379
475684.21357345581055
474334.63073921203613
473023.11153030395508
471750.23007583618164
470514.79736137390137
469316.02064514160156
468153.86871719360352
467026.96334075927734
465931.29538726806641
464857.49982261657715
463789.97133255004883
462714.23983955383301
461627.96850395202637
460541.59000778198242
459467.58474349975586
458409.92743301391602
457362.22295379638672
456310.84630012512207
455239.52066802978516
454135.3090991973877
452994.86860656738281
451824.46324920654297
450632.95156478881836
208726.06050300598145
208454.7750129699707
208210.75300788879395
207992.9699878692627
207799.10524749755859
207626.50317001342773
207472.74566078186035
207336.11788368225098
207215.44205665588379
207110.19226837158203
207019.3419132232666
206941.92217826843262
206874.6987419128418
206815.83267974853516
206761.88427352905273
206711.85390853881836
206669.30183219909668
206625.6401538848877
482709.44681739807129
481124.42075157165527
479594.69953155517578
478119.21571350097656
476688.93490219116211
475297.21714019775391
473943.8191032409668
472631.36090087890625
471362.31673622131348
470139.48418998718262
468963.0009765625
467827.99645233154297
466726.33088493347168
465647.61131477355957
464577.77437400817871
463503.58360481262207
462422.69896697998047
461346.46633911132812
460286.91127777099609
459246.23333549499512
458216.74830055236816
457184.78950309753418
456134.63619995117188
455053.12177467346191
453933.6504955291748
452776.85527420043945
451587.58606338500977
210119.10236358642578
209857.21572113037109
209618.0148754119873
209399.95570945739746
209200.70570373535156
209018.16922187805176
208851.24079895019531
208699.66042900085449
208563.78962707519531
208443.14682769775391
208336.96163940429688
208242.46564865112305
208158.10078239440918
208081.0753345489502
208009.63597297668457
207946.44742774963379
207881.4212589263916
485738.36252212524414
484062.56516075134277
482434.10895347595215
480860.30899238586426
479342.03515434265137
477874.9154224395752
476455.29537773132324
475083.02774429321289
473757.9110107421875
472477.85976028442383
471239.73217010498047
470040.24913215637207
468876.32405662536621
467745.88738059997559
466646.17817115783691
465569.41985321044922
464503.62495613098145
463441.11650848388672
462383.25499534606934
461336.19164085388184
460302.94853401184082
459280.43292427062988
458260.19365692138672
457229.67231559753418
456174.63563346862793
455082.51219367980957
453944.71732711791992
211999.65537261962891
211744.99960899353027
211504.74078369140625
211277.80632209777832
211063.75409507751465
210862.87725639343262
210675.60957527160645
210502.14601707458496
210341.48588943481445
210192.6282787322998
210053.71038627624512
209924.68707275390625
209804.96773338317871
209693.50397491455078
209592.71591949462891
209491.01600456237793
486766.72714996337891
485081.84878730773926
483445.69271659851074
481858.48943710327148
480321.39646339416504
478836.71952629089355
477407.46418952941895
476035.11726760864258
474715.27438735961914
473436.07063674926758
472184.17426681518555
470953.10052108764648
469745.68910598754883
468569.90609359741211
467432.22870635986328
466330.87103652954102
465255.75505256652832
464195.41691780090332
463143.6577262878418
462100.19600296020508
461066.60334205627441
460041.88920593261719
459020.30039596557617
457990.60971450805664
456938.53911399841309
455849.84576416015625
454714.09350967407227
453528.72487258911133
213709.90952110290527
213450.59095191955566
213201.33625793457031
212962.41107177734375
212734.20903587341309
212516.67533683776855
212309.20771598815918
212110.35060119628906
211919.37786293029785
211735.59542655944824
211560.2318000793457
211393.98052024841309
211236.1082706451416
211088.76943397521973
210940.7071590423584
486131.91532707214355
484497.25684356689453
482907.18792533874512
481361.64692878723145
479867.29832649230957
478431.66055488586426
477056.20183944702148
475732.30486869812012
474441.77008247375488
473165.71466255187988
471896.24162292480469
470640.76994705200195
469415.02851295471191
468231.72565269470215
467093.15839958190918
465991.25654220581055
464913.45215225219727
463850.17838096618652
462797.34305763244629
461753.8751106262207
460717.89356231689453
459683.33063697814941
458639.29840469360352
457572.04233741760254
456468.37540817260742
455319.85349082946777
454126.55146789550781
215463.22306442260742
215192.5331859588623
214931.42117881774902
214679.87505722045898
214437.1751537322998
214202.15110015869141
213973.20816802978516
213749.82988166809082
213531.75898551940918
213320.51265335083008
213117.18265724182129
212921.16306304931641
212734.5844669342041
212546.73322105407715
485733.7494945526123
484140.81921768188477
482586.52348136901855
481080.74491691589355
479633.71798133850098
478245.47094917297363
476903.72628974914551
475587.65175247192383
474276.81904602050781
472963.61454010009766
471658.5211181640625
470381.73337173461914
469149.30366706848145
467965.40642929077148
466823.09133529663086
465710.73708724975586
464618.1358757019043
463539.37887954711914
462471.49877548217773
461410.67901420593262
460349.75600814819336
459278.71678161621094
458186.10386276245117
457060.75893211364746
455895.8841495513916
454692.28740882873535
217272.43618392944336
216984.5190486907959
216705.72305679321289
216434.92939186096191
216170.79685211181641
215911.9686450958252
215658.01223182678223
215408.48016357421875
215164.47532081604004
214926.93014526367188
214695.60907173156738
214473.15754318237305
214250.00874900817871
485558.32210159301758
483993.03523635864258
482472.8901309967041
481009.35318946838379
479600.79828453063965
478232.2650318145752
476882.43610954284668
475532.73651885986328
474177.72611045837402
472829.18344116210938
471508.00295066833496
470230.53814888000488
469001.40511894226074
467814.55809020996094
466659.7036247253418
465527.54645156860352
464411.85778999328613
463308.6747875213623
462213.21983909606934
461118.46561241149902
460016.18671226501465
458897.49970245361328
457753.00298500061035
456575.16658782958984
455362.68206024169922
219111.1828727722168
218803.03705787658691
218502.66595268249512
218208.93533897399902
217920.95044898986816
217638.20975685119629
217359.58986282348633
217085.19397354125977
216815.51267623901367
216550.98088836669922
216295.08450698852539
216039.64349937438965
485563.33914184570312
484028.0635929107666
482545.38019752502441
481112.23521995544434
479712.4172534942627
478325.71076965332031
476937.66037940979004
475546.67179298400879
474164.86090087890625
472810.2266731262207
471496.3768424987793
470226.78986740112305
468996.73380470275879
467798.45629119873047
466624.75208473205566
465469.55180358886719
464327.85905265808105
463194.83435249328613
462065.08858871459961
460932.96898460388184
459792.10683441162109
458633.30172729492188
457446.2972526550293
456225.97428894042969
485754.90874481201172
484250.46881484985352
482788.87746429443359
481354.35445785522461
479929.3316478729248
478504.53794097900391
477082.31989860534668
475673.79065322875977
474292.27920913696289
472946.8403377532959
471639.7137393951416
470368.01934051513672
469127.11701202392578
467911.98743438720703
466716.90316963195801
465536.02091407775879
464365.34810447692871
463202.14766883850098
462042.98110008239746
460881.67235565185547
459707.35137367248535
458507.60812950134277
457276.08810806274414
484645.51709175109863
483172.35039138793945
481706.59798431396484
480242.93093490600586
478786.02187347412109
477346.29580879211426
475933.71614837646484
474553.98615455627441
473208.32888984680176
471895.09548377990723
470611.74992179870605
469355.2712459564209
468120.68791007995605
466902.23908042907715
465696.72667503356934
464503.02340126037598
463318.08554077148438
462133.50408172607422
460935.9033145904541
459713.09864616394043
458461.06238746643066
480617.37069129943848
479137.93546867370605
477686.48037147521973
476267.82463455200195
474881.87742042541504
473526.22134017944336
472199.11386299133301
470899.75789642333984
469625.39251327514648
468371.27983474731445
467134.03519439697266
465911.52093124389648
464698.39186668395996
463483.26806831359863
462251.89625549316406
460994.99939155578613
459713.08684730529785
476611.52328872680664
475213.54340362548828
473842.5064697265625
472499.75053977966309
471185.50632095336914
469896.73743057250977
468628.87259864807129
467376.69521331787109
466131.51092147827148
464879.92521286010742
463608.91898345947266
462313.3560962677002
460997.7165355682373
476933.35101699829102
475520.5879955291748
474136.36063003540039
472784.51399612426758
471463.61417579650879
470166.85468292236328
468884.85362243652344
467606.02298736572266
466316.9583854675293
465007.31561470031738
463675.57189559936523
462328.17184066772461
635299.30167388916016
634195.40974426269531
633110.71566200256348
632010.53420066833496
630873.14145660400391
629687.66240692138672
628448.8129997253418
627153.86835098266602
625800.68514633178711
624386.98933029174805
622912.2083911895752
621379.47832107543945
619797.2894401550293
618176.62596702575684
616528.18647193908691
614861.82913970947266
613187.80149078369141
611515.78916931152344
609851.23761749267578
608193.90937232971191
637997.07110214233398
636854.31417465209961
635772.58115768432617
634709.61524391174316
633628.71491050720215
632506.92410850524902
631332.16830444335938
630098.70030784606934
628802.50939178466797
627439.96586418151855
626008.42667961120605
624507.88889312744141
622943.60446548461914
621327.64214134216309
619675.42415618896484
618000.08544921875
616311.31340789794922
614617.7379207611084
612928.03424644470215
611247.94586181640625
609577.94094085693359
607917.44592475891113
641949.27988052368164
640625.87309455871582
639404.99600601196289
638277.9261417388916
637214.00910568237305
636169.03624153137207
635103.88667106628418
633994.28174018859863
632827.39295387268066
631596.67405319213867
630296.99419212341309
628923.27136993408203
627472.40961074829102
625945.25625801086426
624349.10725402832031
622699.71872329711914
621016.97237396240234
619316.54440689086914
617607.65104103088379
615897.10654830932617
614192.37260246276855
612499.45927429199219
610819.5876293182373
609152.95273590087891
607504.34785461425781
605883.39444923400879
644603.59441947937012
643192.0316333770752
641877.95333671569824
640665.59990692138672
639548.3897533416748
638496.0243091583252
637462.86932945251465
636408.68209075927734
635307.42584800720215
634145.29255104064941
632915.03495216369629
631610.516357421875
630225.69781303405762
628757.23532485961914
627206.5682258605957
625582.71886444091797
623904.48757743835449
622195.2408390045166
620473.02114295959473
618746.67282104492188
617021.25716209411621
615303.12922859191895
613598.59840774536133
611909.73152542114258
610237.27406692504883
608586.28223609924316
606965.58958053588867
605383.96787071228027
647166.81335067749023
645666.82751846313477
644264.18206024169922
642956.59778594970703
641750.47095489501953
640640.91154670715332
639597.71096611022949
638573.99231147766113
637527.72956466674805
636432.20919990539551
635272.70347595214844
634041.31399917602539
632730.90739631652832
631334.52729797363281
629848.6541805267334
628275.63004302978516
626626.08643341064453
624921.63095283508301
623188.75010108947754
621447.44261932373047
619706.52194976806641
617969.40570259094238
616241.39023399353027
614528.70711135864258
612833.70066452026367
611157.8320426940918
609506.32602691650391
607886.8122501373291
606306.63918495178223
604772.06496047973633
649640.53130531311035
648038.45956420898438
646548.78670310974121
645152.64090538024902
643848.72017669677734
642644.87071800231934
641538.42444801330566
640499.82594299316406
639481.37765502929688
638440.1157054901123
637348.08148956298828
636189.5331916809082
634955.79154205322266
633639.50589942932129
632233.43170547485352
630733.97577857971191
629143.9511604309082
627475.02478981018066
625750.34548759460449
623998.81799507141113
622242.27941703796387
620489.48238754272461
618742.4648265838623
617005.5664176940918
615285.21409606933594
613584.52933120727539
611905.52540969848633
610253.29174995422363
608634.35645866394043
607054.86212921142578
605520.98172950744629
604039.99482727050781
650299.60424423217773
648707.69356918334961
647225.04673767089844
645833.08804130554199
644531.56354522705078
643329.81354522705078
642226.15868377685547
641191.37947845458984
640177.18037414550781
639139.37323188781738
638049.26146507263184
636890.51921844482422
635653.88987350463867
634331.56495094299316
632916.02369117736816
631403.83042335510254
629798.62117767333984
628113.38440704345703
626372.90060997009277
624607.29698944091797
622839.13240814208984
621077.57061576843262
619323.97481727600098
617581.87973403930664
615857.61619758605957
614154.51455116271973
612474.55197525024414
610822.71863555908203
609204.98396492004395
607626.62275886535645
606093.86081314086914
604615.09822463989258
603201.46125030517578
751217.02672004699707
748275.47006225585938
745349.09133148193359
742462.07503509521484
739628.34841346740723
736876.52712631225586
650751.05597686767578
649165.98584938049316
647688.01445579528809
646298.46252822875977
644997.48778533935547
643795.31949615478516
642691.45314598083496
641657.3302173614502
640644.29638671875
639607.51853942871094
638517.83830642700195
637358.18567085266113
636118.8640079498291
634792.12824440002441
633370.42715072631836
631850.361083984375
630236.12291526794434
628541.29766082763672
626791.15350532531738
625016.45053482055664
623240.81685447692871
621473.4767894744873
619715.19823265075684
617969.02366828918457
616241.54458236694336
614536.18350219726562
612854.91062545776367
611202.80815505981445
609585.47756195068359
608007.56830596923828
606475.4085807800293
604998.33701705932617
603587.89213562011719
602257.9512767791748
754563.75474739074707
751639.70839881896973
748684.35435676574707
745744.69030952453613
742844.51298522949219
739997.73523902893066
737233.51848220825195
650989.18507194519043
649407.35531234741211
647931.53853988647461
646543.01108360290527
645242.42648887634277
644040.45532035827637
642936.88006782531738
641903.47932052612305
640891.25488662719727
639854.85982513427734
638765.04882049560547
637604.44086074829102
636363.08112716674805
635033.22405624389648
633607.45668601989746
632082.41952514648438
630462.63802909851074
628762.16637420654297
627006.80721855163574
625227.50951385498047
623448.00858688354492
621677.77109909057617
619917.54581260681152
618169.92316818237305
616441.46196556091309
614735.65289115905762
613054.38936233520508
611402.62679290771484
609785.86370658874512
608208.51467514038086
606676.84983062744141
605200.80550384521484
603791.95616912841797
602464.07095718383789
601221.16658210754395
206003.61041641235352
205865.63490104675293
205746.63517379760742
205647.01137924194336
205568.44845962524414
205508.4408130645752
205469.65083312988281
205447.9333381652832
205445.98335456848145
205465.16775321960449
205495.61331939697266
484674.41323089599609
483371.99175643920898
482071.6707763671875
480767.67107772827148
479454.76154518127441
478129.81564712524414
476790.4787540435791
475437.7243709564209
474080.3908748626709
472732.6853199005127
471405.84303855895996
470100.60017967224121
468806.45831108093262
467507.40546035766602
466191.27250671386719
464858.49105072021484
463519.78976631164551
462189.30828094482422
460879.32416915893555
459598.26029586791992
458350.16012382507324
457134.38962745666504
455946.72725296020508
454781.84296417236328
453636.78659248352051
452511.14821434020996
451402.57559776306152
450301.69598007202148
449195.28313636779785
448076.24225234985352
446949.07328605651855
445824.29131317138672
444710.32053184509277
443609.73655128479004
442520.61162567138672
441439.11965942382812
207783.86693000793457
207488.5659236907959
207215.96020126342773
206966.86058807373047
206740.44814109802246
206534.16643142700195
206344.28317451477051
206167.09791564941406
206000.36646461486816
205843.7645435333252
205698.75898551940918
205567.08955383300781
205450.87152290344238
205350.37664222717285
205267.35595321655273
205200.06839179992676
205151.76248168945312
205119.52277946472168
205106.62035179138184
205114.75132179260254
205134.46055793762207
485015.23908805847168
483707.81653785705566
482408.44888877868652
481104.43190383911133
479786.4178638458252
478452.27961730957031
477104.11865234375
475746.86184692382812
474390.93258476257324
473049.5770206451416
471732.09707069396973
470438.50786781311035
469158.55308532714844
467875.17157936096191
466574.05395698547363
465253.73111152648926
463925.58949279785156
462605.44645500183105
461305.97788429260254
460035.06719017028809
458796.92378616333008
457591.59978103637695
456413.81537628173828
455255.33815383911133
454109.79864120483398
452974.90929794311523
451847.96581649780273
450719.84815406799316
449578.88345336914062
448420.45740127563477
447251.49057960510254
446083.71430969238281
444925.43580055236816
443778.40483665466309
442639.66495895385742
441505.1589241027832
207495.74409294128418
207200.67003059387207
206928.08490371704102
206679.25745010375977
206454.42041969299316
206252.09366989135742
206069.05408668518066
205901.08190727233887
205744.41410255432129
205596.74079704284668
205457.78260040283203
205328.44808006286621
205210.78408813476562
205105.53133201599121
205014.84487724304199
204937.83546829223633
204878.20821762084961
204833.91414451599121
204808.36491775512695
204803.19838714599609
204809.14303588867188
484258.60762023925781
482948.0493335723877
481630.34459686279297
480294.63535118103027
478943.27368354797363
477585.87049293518066
476231.70224380493164
474887.67069244384766
473558.8899040222168
472249.36713600158691
470961.6197509765625
469692.61895942687988
468429.1330680847168
467154.42646217346191
465861.3199291229248
464557.66703605651855
463258.57659339904785
461977.02543640136719
460721.97786140441895
459499.52864837646484
458310.49854278564453
457147.51420974731445
455997.19723892211914
454848.29319000244141
453696.59744453430176
452540.65597534179688
451375.44070053100586
450193.21271324157715
448992.5119571685791
447781.33562660217285
446570.34518814086914
445366.20611953735352
444169.51455497741699
442976.7563533782959
207018.31321907043457
206744.39108276367188
206493.46612548828125
206266.96769332885742
206064.68833541870117
205884.06804275512695
205720.52659225463867
205568.89752578735352
205424.99541091918945
205286.91336059570312
205154.83083915710449
205031.04640579223633
204917.4641284942627
204817.26709175109863
204730.60498046875
204661.46503639221191
204608.21118927001953
204573.73387145996094
204558.97948837280273
204553.96701240539551
484890.0018310546875
483553.42899894714355
482208.21029853820801
480845.92773246765137
479475.9345588684082
478114.43546295166016
476771.21044158935547
475445.95078468322754
474133.84027671813965
472833.78508567810059
471552.57473945617676
470297.20446395874023
469061.77573776245117
467827.86162757873535
466580.41030883789062
465319.50530433654785
464056.20902824401855
462804.3189582824707
461576.2477970123291
460381.3266487121582
459220.23886680603027
458081.14007949829102
456944.11135292053223
455793.60505104064941
454624.46396255493164
453438.60619926452637
452236.7164421081543
451017.06766128540039
449780.08787536621094
448531.38376235961914
447279.3053150177002
446029.77583312988281
444784.1099739074707
443540.41549873352051
206980.11260986328125
206702.4067268371582
206447.61687469482422
206217.93378257751465
206013.71087646484375
205832.32698822021484
205668.49990081787109
205515.94884300231934
205369.39373588562012
205226.36794471740723
205087.18350791931152
204954.63961410522461
204831.3989429473877
204721.18337249755859
204624.86979103088379
204546.73882102966309
204485.97167015075684
204445.38020706176758
204425.53940582275391
204415.34371757507324
484206.4472599029541
482817.56678199768066
481419.20523643493652
480026.74867057800293
478658.27796173095703
477320.51861381530762
476006.0396728515625
474702.84185218811035
473407.40445137023926
472130.69922828674316
470887.98947906494141
469680.57064056396484
468490.55917358398438
467295.89760589599609
466087.12195587158203
464869.50017547607422
463656.90285491943359
462466.16195487976074
461309.66133117675781
460185.8409309387207
459075.97449111938477
457954.88412666320801
456805.41643524169922
455623.9429988861084
454416.0921573638916
453188.0842227935791
451942.11522674560547
450678.37759208679199
449398.6632080078125
448109.5242805480957
446819.24145317077637
445532.58644104003906
206866.98652267456055
206603.3175048828125
206366.00385665893555
206155.62312126159668
205968.99068832397461
205799.80727767944336
205640.88515090942383
205486.67379570007324
205335.07164001464844
205187.29067993164062
205046.99775505065918
204917.31357383728027
204801.48764419555664
204699.76626205444336