/*--------------------------------*- C++ -*----------------------------------*\
  =========                 |
  \\      /  F ield         | OpenFOAM: The Open Source CFD Toolbox
   \\    /   O peration     | Website:  https://openfoam.org
    \\  /    A nd           | Version:  12
     \\/     M anipulation  |
\*---------------------------------------------------------------------------*/
FoamFile
{
    format      ascii;
    class       volScalarField;
    location    "0.0071";
    object      rho;
}
// * * * * * * * * * * * * * * * * * * * * * * * * * * * * * * * * * * * * * //

dimensions      [1 -3 0 0 0 0 0];

internalField   nonuniform List<scalar> 
106891
(
1.1566159579988459782
1.156582134124037875
1.1565653976187846297
1.156571580960174872
1.1566012674854233566
1.1566572488494486493
1.1567357629991599222
1.1568325457559116565
1.1569414606023100678
1.1570552695580098579
1.1571622284006126691
1.1482220372061904268
1.1487846286798868434
1.1494787756104942744
1.1502369007235391241
1.1509964079016925531
1.1517301453645518716
1.1524410425331390595
1.1531357308937846273
1.1537942910971188404
1.1543776461131571853
1.1548413448999712561
1.1551585759931959352
1.1553432641771430589
1.155444686068751059
1.1555188470925343847
1.1556102855522150108
1.155734333913946088
1.1558752831171283937
1.1559995893232675179
1.1560785785643594714
1.1561017524274286306
1.1560791074859959604
1.1560314675753673441
1.1559742280445297613
1.1559061204336826822
1.155811895291749769
1.1556796891413882999
1.1555180572489287538
1.1553621060847474311
1.155263510596980181
1.1552615480013859184
1.1553618772618503563
1.1555286295820346165
1.1557006181496969344
1.1558270993869386167
1.1558866248525991871
1.1558926409553131887
1.1558795080476935713
1.1567283011680422611
1.1568191545075674487
1.1568789765292162297
1.1569074212176768679
1.1569081894700015134
1.1568873586455801217
1.1568518484587471118
1.1568085632052675926
1.1567632597290071761
1.156721681568515514
1.1566893390380630358
1.1566703528144257618
1.1566704514698606943
1.1566913364968407496
1.1567387942551103919
1.1568111107384582148
1.1569061279827796973
1.1570197198803686689
1.1571435974959456416
1.1572677905205872584
1.1489517837280398549
1.1496638666264167306
1.1504159152620767603
1.1511565589132439769
1.1518688957333271805
1.1525674462715855828
1.1532578894070191211
1.1539194590538006668
1.1545079817900973929
1.1549763686908178784
1.155301361656519088
1.1554938345640013431
1.1556016991335287258
1.1556851930075793256
1.1557864369917889569
1.1559184330146672348
1.1560643137174642092
1.1561916915510253023
1.1562738373126082436
1.1563038230198690037
1.1562943924051158895
1.1562691366650759139
1.1562420283404046817
1.1562080444953952707
1.1561410929899904598
1.1560140723527470019
1.1558246435957912901
1.1556101737182653544
1.1554342315617311954
1.1553543135676418441
1.1553950629335998368
1.1555350061289115793
1.1557207550810195684
1.155894103702426845
1.1560198929019713798
1.1560939178202154221
1.1568673070076165299
1.1569463166610698401
1.1569975041387798864
1.1570205252841367916
1.1570190921633325409
1.1569993145061725492
1.1569674606705322439
1.1569297330483550024
1.1568905825248869679
1.1568539793765715284
1.1568239866124772064
1.1568038417637946935
1.1567983854672967414
1.1568087540905804822
1.1568428670725054985
1.1569017480928858177
1.1569869501669149958
1.1570968839671580408
1.1572215586613912031
1.1573525427717439307
1.1492202798686930176
1.1499103870068752009
1.1506370930846707701
1.1513685019753323591
1.1521008292795744676
1.1528439619290999918
1.1535887453158257809
1.1542956598780362842
1.1549001186739562552
1.1553474266551837513
1.1556283727366583047
1.1557785030023368655
1.1558565308517536607
1.1559234793011690101
1.1560203649382070346
1.1561505992009464272
1.1562855251185459871
1.1563902634186360441
1.1564465850746872277
1.1564601342092495351
1.1564527643706377091
1.1564497177578725307
1.1564636399304153436
1.1564810583859483906
1.1564666357285098286
1.1563808635624930332
1.1562108142291418478
1.1559840487703729739
1.1557604170003359378
1.1556067800692637615
1.1555665709659341811
1.1556394746829787845
1.1557874044867901819
1.1559578286267198077
1.1561077826180967687
1.1562225731160300501
1.1570717508098851134
1.1571144609064702991
1.1571318638679670698
1.157127446696319506
1.1571079557278132199
1.1570797054621004829
1.1570477595860422237
1.15701517846209323
1.1569841501017537055
1.1569569038257478955
1.1569365016890460485
1.1569287213944015047
1.1569348506918619712
1.1569622479651795466
1.1570103179563309137
1.1570820841292515091
1.1571790485947623939
1.15729170644483359
1.1574159459588893029
1.1499719586804788563
1.1505859584663982176
1.1512068001403139572
1.1518600911756573524
1.1525673369521802769
1.1533142599047780941
1.154042341755908474
1.1546726908528353039
1.1551438859596514508
1.1554463062296107534
1.155626708219204879
1.1557555753857891023
1.1558919047219238241
1.1560598290456673976
1.1562445021142944146
1.1564092610273470907
1.1565244006080994676
1.1565862297501865452
1.156615655021894673
1.1566407288428710576
1.1566788302192629878
1.1567303672677984316
1.1567770402555694886
1.156784756446346929
1.1567188013679934322
1.1565637196901561445
1.1563359360044236368
1.1560850188335722866
1.1558757701861437361
1.1557621596271721032
1.1557660045148709926
1.1558723420815322225
1.1560385483237543003
1.1562198266853331852
1.1571584644817172194
1.1572108725585257272
1.1572418327540163752
1.1572499764624823992
1.1572379034160982236
1.1572114102436319438
1.1571772884956779137
1.1571413904755856183
1.157107722987624987
1.1570787990544812995
1.1570551873293282164
1.1570382020268614731
1.1570326115112521403
1.1570394807636033008
1.1570663587443210663
1.1571103791135990413
1.1571727803552500635
1.1572547605054779307
1.1573465655795653895
1.1574497345770975443
1.1503075451207833702
1.150982364601221164
1.1516499203238648175
1.1523370749063654994
1.1530559869155907471
1.1537821359209798899
1.1544553434984237139
1.1550081728644785439
1.1554008948300984461
1.1556398350103347372
1.1557793962598050808
1.1558969188703696052
1.156045748484732405
1.1562284227076673471
1.1564100369497345433
1.156551464440199295
1.1566360115537903663
1.1566765392898008535
1.1567052762556151446
1.1567502955559081368
1.1568197334684999777
1.1568961719517927289
1.156958490800225503
1.1569873958055334473
1.1569635901776991194
1.1568706604491265644
1.1567062667899234985
1.1564887660073075448
1.1562633853810435625
1.1560883285806398124
1.1560111888201629604
1.156047069015826656
1.1561734675988244447
1.1573859282027685325
1.1573989738942720429
1.1573890187067570334
1.1573597942140361194
1.1573169710292592338
1.15726748105555588
1.1572177341544849227
1.1571723805682121444
1.1571362464835988071
1.1571114543722769152
1.1570986530558176053
1.1571004694579800631
1.1571148180458008525
1.1571464587573270233
1.15719007509535321
1.1572447693280054626
1.1573098677284601177
1.1573755643501317802
1.1574489920766024564
1.1508530039128346267
1.1515638549715494499
1.1523153304740434422
1.1530906101127202934
1.1538476442365113162
1.1545195324456973829
1.1550514917557213046
1.1554270984200192274
1.1556695541098116475
1.155835350794184313
1.1559894199383389246
1.1561686572352631863
1.1563660498387062781
1.1565451219151776652
1.1566738914435361618
1.1567510939773826273
1.1568017251377906707
1.1568554221302136398
1.1569258015665775385
1.1570013557087492906
1.1570584897951134984
1.1570908615482924375
1.1571102940861746067
1.1571219685449043446
1.157105157690782482
1.1570265424446943836
1.1568657858133055694
1.1566416901366474157
1.1564125479217886028
1.156251961110794868
1.1562096050081176468
1.1562901671904686207
1.1576079307867397361
1.1575981930809915443
1.1575629670830491769
1.15750724607314881
1.1574385381540135409
1.1573649421879028676
1.157294512844525558
1.1572329804030543343
1.157185760940592445
1.1571562901720626737
1.1571452393728440811
1.1571533870489485452
1.157176147026255375
1.1572139969637966761
1.1572577593468942325
1.1573051310091213573
1.1573538527958353583
1.1573934840538182556
1.157435558357285954
1.1517280284365112308
1.1524563369082914122
1.1531880265824492326
1.1538759806068383806
1.1544756243268019524
1.154957176025633192
1.1553272653419370819
1.1556149351373465883
1.1558519422746147409
1.1560663963187387537
1.1562641516706053668
1.1564336337582787895
1.1565648093857463508
1.1566574627936390129
1.1567311652985576842
1.1568127934706200488
1.156914760238243689
1.1570159254849181618
1.1570868989198199728
1.1571095268376494491
1.1570947801411171074
1.1570892830349503999
1.157130225592366779
1.1571950309808665125
1.1572192249967847566
1.1571477985709512915
1.1569748001719009078
1.1567480410665762491
1.1565469536293906394
1.1564437890297674105
1.1578346771870218213
1.1577726288543166433
1.1576918538763578681
1.1575996251416993399
1.1575045428228558642
1.1574154212180685075
1.1573388247183753474
1.1572805768923355441
1.1572440113249471416
1.1572297622684037943
1.157237077520926416
1.1572594856682973941
1.1572955998849054904
1.1573345328354784911
1.1573727051066458049
1.1574074851847369061
1.1574296084651245486
1.1574516162528245555
1.1524714445482877601
1.1531578660902632727
1.1537861541151746003
1.1543348498610088715
1.1548074274296284969
1.1552160681146870225
1.1555787007239421982
1.1559033817671031663
1.1561782454939268927
1.1563813991335434306
1.1565080013392177172
1.1565802950101466973
1.1566385810968369263
1.1567229012687556544
1.1568543442605885296
1.1570100390615445374
1.1571340271532406518
1.1571791857715112428
1.157140063489484838
1.1570524505565726869
1.15698277832951546
1.1569851982445986671
1.1570587989765761527
1.1571437169945433254
1.1571681305277579099
1.157096101523845455
1.1569548739293775697
1.1568131193375545962
1.1580988922455084378
1.1580177167725742571
1.157922745467860226
1.1578210836872553369
1.157719474773228896
1.1576248977290366504
1.1575424820326591924
1.1574760797938929979
1.1574279400284186448
1.1573994122895137071
1.1573908370193786155
1.1573968378970542759
1.1574166366996130328
1.1574409747344194255
1.1574673286502776826
1.1574928786223743771
1.1575084111281668253
1.1575250073290443975
1.152987124877612457
1.1536267191839582047
1.1541915083195792846
1.1546876983828204821
1.1551277238398371949
1.1555224492947164805
1.1558711338453730999
1.1561530675559292813
1.1563481243640911789
1.1564574684727044751
1.1565141423285008049
1.1565796828463714707
1.1566968875031757857
1.1568708663110116586
1.1570525489411034314
1.1571819739077988665
1.1572041170847322533
1.1571161672948648835
1.1569743141866044578
1.15684560014258353
1.1567845014522746272
1.156811412929358962
1.1568963415223243452
1.1569830214320204753
1.1570275052305105667
1.1570215926164428843
1.1569907777349217604
1.1582884855467587837
1.1581991472498154305
1.1581087405918610855
1.1580204673230465318
1.1579367263771298546
1.1578587867087737351
1.15778778250946357
1.1577248661520740391
1.1576717965355669548
1.1576314047817810593
1.157603753128788826
1.1575920012357403532
1.1575915667372882467
1.1576033650278443332
1.1576245805501241826
1.1576449298929776255
1.1576700732969333885
1.1528060360910763471
1.1533831164825085747
1.1538981806619561521
1.1543680314129987075
1.154795022493219081
1.155180594563629537
1.1555264964120666171
1.1558307146657806896
1.1560864479385524195
1.1562909865869652748
1.1564497214493205668
1.1565831303253737428
1.1567149348237233397
1.156863694880349458
1.1570170210960302182
1.1571382085352837077
1.1571784816296195597
1.1571121153481371824
1.1569543141441376299
1.1567515553264056116
1.1565633908020012122
1.1564373172466420048
1.1564013604515912537
1.1564617688101572757
1.1565980062184231247
1.156773206229405826
1.1569431763094295551
1.1585078230825307521
1.1584460384369938968
1.1583845049193413068
1.1583202373499308369
1.158250704170889156
1.1581753681973525616
1.158095556164359774
1.1580147077708584646
1.1579390130357389843
1.1578735492571370358
1.1578262204158058513
1.1577989491542282074
1.1577952008372449644
1.157811503035530043
1.1578378476553836673
1.1578746573526614849
1.152397164577693367
1.153007459714440186
1.1535684770830272328
1.1540887035726592469
1.1545505937749993564
1.1549370531379159477
1.1552504210446210564
1.1555157932347008831
1.1557654249376414501
1.1560160923849664982
1.1562674578753415755
1.1565041881660129697
1.1567121452164716988
1.1568789304166815501
1.1569885952776819416
1.1570336388824133955
1.1570048580978371522
1.156901285973013449
1.1567409895232716455
1.1565591479191241753
1.1563956443979050981
1.156277680655325879
1.1562244492118842754
1.1562528027109222339
1.156363463818079973
1.1565363210693326845
1.1567345890519669105
1.1569159625850102824
1.1587348705725093456
1.1586975927591867119
1.1586490419009372044
1.1585849310360301079
1.1585044375359878632
1.1584101222553118138
1.1583080806043439814
1.1582078449755459637
1.1581186832598771019
1.1580505515938828154
1.1580072953500750721
1.1579926392098842669
1.1580032807456039912
1.158029893431538504
1.158068794918282407
1.1525920048812072771
1.1531761001420353097
1.1537253102230204949
1.154205086248549561
1.1545850206035750407
1.1548758239561391914
1.1551275032868710824
1.1553943760064051549
1.1557078369521915917
1.1560550004869301066
1.1563907187565591883
1.1566661406630560638
1.1568526487005044157
1.1569428019819745224
1.1569471565563196336
1.1568812016059910608
1.156761242806663148
1.1566033604293572967
1.1564331209713036852
1.1562764058654011468
1.1561571116496662803
1.1561008072246530265
1.156120465938393238
1.1562133835395871362
1.1563642575085211206
1.1565493973832436936
1.1567301191700751772
1.1589381620284127106
1.1588973321809645789
1.1588330919467546565
1.158745350448827871
1.1586389552060945007
1.1585224494305108589
1.1584073892848720799
1.1583047046328340812
1.1582247076642970818
1.1581726269867240742
1.158151777771903479
1.1581580292793971498
1.1581821593459071806
1.158218186676128747
1.153023886797130082
1.153548336965633192
1.1540036946821246033
1.1543516357146150764
1.1546082640858106316
1.1548386302125133174
1.1551138878518372177
1.1554654042373928569
1.1558626508362834784
1.1562363015671215383
1.1565217788879027516
1.1566879301140422509
1.1567453327047989564
1.1567265932413908214
1.1566607208535104601
1.1565670313607183672
1.1564570349884515377
1.1563369433079697668
1.1562177656061869424
1.1561259389042299883
1.1560890623823794066
1.1561152031965382658
1.1561980689099655706
1.1563171889747225762
1.1564511284157419357
1.1565755334801717247
1.1591057695112592096
1.1590364753805237896
1.1589391015895023074
1.1588208665125347974
1.1586924854167559573
1.1585668109563485029
1.1584556484258872189
1.1583690548085083805
1.1583122864594355139
1.1582873832028490746
1.1582894195855901742
1.1583103273574144598
1.1583432582957402524
1.1536468606446459439
1.1541000911341980917
1.1544309847459794938
1.1546627326450817907
1.1548698285728866697
1.1551285665966448679
1.1554657670317172169
1.1558430107543420373
1.1561818095810936224
1.1564172254174949206
1.1565302507182300129
1.1565489870028904384
1.1565224245534357905
1.1564847361300598649
1.1564449762169217717
1.1563927239087816723
1.1563158817839551684
1.1562206967775614519
1.1561374277077429706
1.1560961360977564105
1.15611203046586275
1.1561755271518485699
1.1562633561821462624
1.1563529442690925197
1.1564304952374326874
1.1591968163723598284
1.1590892003456314541
1.158960692550106808
1.1588239109913915925
1.158692347981814974
1.1585778433242375218
1.1584889311043307103
1.1584304455835989778
1.1584028775350250218
1.1584013751321877717
1.1584192686324250587
1.1584491072371556619
1.1540649425269395856
1.1543917474986842286
1.1546388171543346957
1.154864689651219134
1.1551303225201048352
1.1554507536677487423
1.1557815081827604864
1.1560542763877683647
1.1562188156130313033
1.1562760183845262052
1.1562750501497125466
1.1562717561607840366
1.1562987449962132125
1.1563436261964368246
1.1563709836676756559
1.1563531700571492156
1.1562958542977777032
1.1562286448696261765
1.1561860620178925352
1.1561865419631984775
1.1562208212551763342
1.1562658185832681568
1.1563010894004717155
1.1563236152422966541
1.1544372661322050977
1.1547233203226408005
1.1549794681986311762
1.1552480039305828008
1.1555302969278171688
1.1557921271974427313
1.1559825197625053228
1.1560733379693826084
1.1560876633270777969
1.1560823790825556223
1.1561127768619789968
1.1561964498303249904
1.1563054540004671367
1.156387399095222257
1.1564079960637752009
1.1563721660589181273
1.1563121476998334813
1.1562662108855992216
1.1562517193764549894
1.1562605089011024351
1.1562701957931795782
1.1562650543924803959
1.1562520843970625073
1.154871066489929099
1.1551929582502877825
1.1554686291083049454
1.1556787912273920327
1.1558070161384912389
1.1558525864640276648
1.1558515897726422406
1.1558674930497954136
1.1559443127816722008
1.1560859796225291252
1.1562524941884049223
1.1563855184720972513
1.1564493437347105331
1.1564461984266396488
1.1564095662141189447
1.1563752211972369022
1.1563555174676596327
1.1563406017858168795
1.1563125294977121271
1.156264764938162326
1.156216983248294472
1.1558664994440781548
1.1558556397013155514
1.1558321941498412855
1.1558493059428547323
1.1559400688835386184
1.1560953277872711986
1.1562684524276127807
1.1564040325193905012
1.1564709948543783202
1.1564758135589250365
1.1564518157949312815
1.1564288801762250269
1.1564131024240718038
1.1563930033917129148
1.1563545687446874499
1.1562998411677569699
1.1562566328469683352
1.1559757925241844756
1.1561345734260135565
1.1562955704364847875
1.1564140517817886877
1.15647138012967865
1.1564834305010025517
1.1564792696443353393
1.1564770280896992105
1.1564749862237828637
1.1564575822313469811
1.1564137481440830424
1.156355332221696619
1.1563170354277063634
1.1561965322500098452
1.1563375470427088576
1.1564294229377223289
1.1564709316128596317
1.1564857231129328508
1.1565004261805682528
1.1565222098918133131
1.1565384066235122607
1.1565297010243134057
1.1564886503956726127
1.1564341907035313728
1.1564046375863268334
1.1499245273491669472
1.1493207485500782639
1.1487658204210977608
1.1483514926902043118
1.1480884900446040042
1.1479308389877620478
1.1478081378547124736
1.1476545279679619682
1.1474171599183087267
1.1470849200923731726
1.1467026996276727946
1.1463820247560352339
1.146261540300985482
1.1464458704125499722
1.1469553023486447341
1.1477109885536118661
1.1485584106514707958
1.1493204906161662571
1.1498440811467964817
1.1500380718638780753
1.1506682592419432698
1.1502492919697189233
1.1496413709665174174
1.1490279565272452089
1.1485466941192710166
1.1482394391873396167
1.1480715845839482014
1.1479720856030610765
1.1478599943886831358
1.1476594591841271509
1.1473315208656791331
1.1468999018514083321
1.1464655852115901435
1.1461744464648595532
1.1461539473595152572
1.1464644215265231697
1.1470742431751597135
1.1478718539064134418
1.1487023506272968643
1.1494031622742200138
1.149840816370396146
1.1499323464814099616
1.1501311038089538918
1.1506138754765629084
1.1507132082265996154
1.1504138079222905322
1.1498468418299345739
1.1492118646584930097
1.1486811056534911302
1.1483297510098318117
1.148141517812915513
1.1480482568525667286
1.1479596885602980638
1.1477833400555326193
1.147459223184116972
1.1469970122763999409
1.1464912522242451942
1.1460866076563223093
1.1459207351031648336
1.1460733059267356193
1.1465384056228544729
1.1472380575596894392
1.1480482687054334168
1.1488228373553501793
1.1494191490835874436
1.1497246011653983189
1.1496808731517262903
1.1493046184836877011
1.1492813777637715944
1.1498088636261658557
1.1500962587304204288
1.1500364763056694084
1.1496426082950415015
1.1490522076626874526
1.1484526231326186441
1.1479941011647534221
1.1477328980181409346
1.1476331843460623183
1.1476148099980074679
1.1475853670125835126
1.1474593379298017037
1.147188957971456702
1.146802585458588597
1.1464069099923559492
1.1461418210510143645
1.1461203940100388454
1.1463794040868968693
1.1468691395423529222
1.1474817335706810617
1.1480984679867827225
1.1486116743798924222
1.1489361191127080986
1.1490147218439525911
1.1488217329535108657
1.1483799816146051942
1.147754437727582344
1.1487818913109009156
1.1486771953712044958
1.1484837660782012403
1.1482105617601039427
1.1478411530083556524
1.1473963313514203843
1.1469543745522945422
1.1466148694803812713
1.1464393292303365346
1.146428753228304398
1.1465317695879195803
1.1466867470240493798
1.1468407168055567702
1.1469532301039737643
1.1470014913361608055
1.147006868159569315
1.1470252206527875583
1.1471103657735410852
1.1472737009330855606
1.1474660549510751206
1.1476050193502631558
1.1476222876092314618
1.1475020964345725716
1.1472740418256142103
1.1469805577041596312
1.1466462399481118783
1.146273988423961443
1.1458695572457886502
1.1454596253376494452
1.1451065814406815591
1.1473927453913199681
1.1474105541846082446
1.1474686295387919177
1.1475529061884348625
1.1476045951572837467
1.1475420244107967793
1.1473423314698640851
1.1470716241815310799
1.1468387833939901466
1.1467262285359260954
1.1467594389933311039
1.1469093947355482044
1.1471212783464002083
1.1473321761761670068
1.1474792520122674144
1.1475156223649096709
1.1474436503428917522
1.1473156192224889249
1.1472024929027724305
1.1471470340885747685
1.147136208913000166
1.1471253937121490551
1.1470794635707979303
1.1470041123441803155
1.1469385524878059623
1.146916741891117919
1.146939230023365397
1.1469728676214139274
1.1469740196700730639
1.1469216783020066419
1.1468290719977971559
1.1467443431951440669
1.1486182229453556491
1.1486265787806244631
1.1486544197585433214
1.1486963278996058513
1.1487045879415522798
1.1486091154647408707
1.1483950275765884008
1.1481428246471354626
1.1479757853122740663
1.1479803528322187756
1.1481693022863632692
1.1484896863638691666
1.1488513232873243108
1.1491573195658644213
1.1493251719126533761
1.1493149900310342115
1.1491535274431059488
1.1489325602113498181
1.148760731455079398
1.1487013466875195533
1.1487468321327618526
1.1488354512863334644
1.1489103209399564864
1.1489550672729254011
1.1489922704387913743
1.1490445251011280892
1.1491065431278448816
1.1491458003279662048
1.1491219749777130676
1.149018549208075779
1.1488583425214109468
1.1486983277976696716
1.1486219502093300004
1.146423052004209131
1.1466199848628650937
1.1469301535241622769
1.1472204433799875201
1.1473759890986889864
1.1473081472108042078
1.1503832066919530419
1.1503766025883686019
1.1503988552765482822
1.150446506952188308
1.1504645540810911619
1.1503764507436604614
1.1501613350358790289
1.1498987902877948475
1.149717220705943177
1.1497055591621263559
1.1498754255725571749
1.1501716626868316862
1.1505007965056066599
1.1507631323900608944
1.150877815062182119
1.1508089517013850855
1.1505883158821490486
1.1503143050031534589
1.1500995813701937465
1.1500062522765437389
1.1500223106598450595
1.1500795464827848757
1.150117256814986666
1.1501198197174531401
1.1501131742303287719
1.1501243348952578938
1.1501474564838749526
1.1501496561222908088
1.1500859095363356044
1.1499369568055679558
1.1497220592262946681
1.1495025233494882144
1.1493667165444911848
1.1493963487339584617
1.1490398842398932278
1.1490019751403548476
1.1492107140752505501
1.1495399005533051273
1.1498539024386373875
1.150024169462122714
1.1499493654963408584
1.1520147907628690565
1.1519777722108723861
1.1519704684260234639
1.151989866047348654
1.1519761636356062873
1.1518486291235423558
1.1515896442915301012
1.1512808452708509499
1.1510559211596318452
1.1510063697544046235
1.1511438615452804779
1.1514098348485075629
1.1517114715445315731
1.1519447364088246655
1.1520284893319743258
1.1519260791771352981
1.15167059373821834
1.1513628585340358601
1.151118918383109202
1.1510011086514329026
1.1509931155161952088
1.1510264473198341673
1.1510383373948926966
1.1510139501275227225
1.1509820690858139081
1.1509705286968618942
1.150974520793672351
1.1509565524417042504
1.1508719252033996483
1.1506994484049730687
1.1504556086402057957
1.1502065299102623985
1.1500420214471753777
1.1500499275531606003
1.1502646328281984633
1.1563723971567598792
1.1563789460245541552
1.1563917928607332364
1.1564054705784210242
1.1564134019984080304
1.1564149154017133725
1.1564105988323618579
1.1564078133078372623
1.156410776669591467
1.1564266658858153303
1.1564576533790511537
1.1481424381301306159
1.1488816884648493932
1.1496968204128683588
1.1505393166516739711
1.1514128173345627992
1.1523293196585540077
1.1532503831129450322
1.1540742651524624751
1.1546860464189432349
1.1550328122576642986
1.155175529659784095
1.1552678250870427323
1.1554431815126156025
1.1557521359322593391
1.1561265637335527146
1.1564377380198260781
1.1565939045853446121
1.1565772791036397216
1.1564390151616952274
1.1562581691814088902
1.1560857099090151578
1.1559307524861153205
1.1557816385475998544
1.15564268873663889
1.1555442533983169007
1.1555274002195061733
1.1556205656347009469
1.155814480082045792
1.1560597845086018065
1.1562840914903949052
1.1564310769007652979
1.1564783913237735025
1.1564380829594713695
1.1563355947031410675
1.1561914989925541342
1.1560100616382249505
1.1562780941682586633
1.1563819472725749282
1.1564606146927907115
1.1565106509227705001
1.1565333754362034924
1.1565343821161881976
1.1565219425771160466
1.1565053363725825708
1.1564934570918319334
1.1564922077387187471
1.1565032917948661062
1.156524713763736667
1.156551039678461068
1.1565765981496949344
1.1565948135669941177
1.156606104888149078
1.1566108197915589972
1.1566164099227680406
1.1566277419267005921
1.1566501923680323483
1.1566851448970703053
1.1481550441684171826
1.1489017337956113352
1.1497503915923701356
1.1506485900656078236
1.1515859302636053396
1.1525509415061019336
1.1534954002082795643
1.1543161706187534676
1.1549075469775984537
1.1552374120077297803
1.1553772014644496657
1.1554815020587976271
1.155686744163535673
1.156035219503043443
1.1564495510870094197
1.1567903067875577872
1.1569480684998296738
1.156895991007158786
1.1566915400983075468
1.1564271038546556358
1.156171932153978732
1.1559550459010552448
1.1557821339026883578
1.1556633851152127157
1.1556208165332466642
1.1556777360520149589
1.1558394723602691823
1.1560745323044305799
1.1563243563919862744
1.1565287701398916376
1.1566399476058510931
1.1566537591389671746
1.1565924018646078775
1.156480068297115249
1.156322750466890259
1.1561169018419812371
1.1564097888518443114
1.1564899680517317648
1.1565506320650933425
1.1565902595999972835
1.156610914475135754
1.1566179597647896493
1.1566190556582756077
1.156621646848182916
1.1566313586947261083
1.1566511028501802461
1.1566800247489938958
1.1567137714391084735
1.1567470356225353356
1.1567762501063718616
1.1567966695582143632
1.1568107016634940898
1.1568189789476224227
1.1568290089406862986
1.1568452354980442998
1.1568699941979800894
1.1569037970429603135
1.1490440568171560454
1.1499147876222690634
1.1508519873113844945
1.1518197854726881513
1.1527861650064461507
1.1536975846191082073
1.1544762061873352632
1.1550424668603480605
1.1553797477978346997
1.1555559659726366561
1.1556985280759493051
1.1559265814838470821
1.1562755780880002998
1.1566740219683482316
1.1569941852070599886
1.1571288982621152908
1.157049712625965121
1.1568111512951986253
1.1565004401776755039
1.1561951890361854556
1.1559439761225103194
1.15576765536850945
1.1556836236207259638
1.1557073559417307962
1.1558476936528276902
1.1560781623490616887
1.1563451272095084388
1.1565880282822564862
1.1567498658471644379
1.1568128056352440236
1.1567920190830680571
1.1567153780123420326
1.15659989516178352
1.1564400140535679995
1.1566173496251710429
1.1566545115225619345
1.1566827960261811814
1.1567053388293737637
1.1567264161990091775
1.1567497304707587968
1.1567785361745346329
1.1568140578287640086
1.1568548902427053804
1.1568985594117733307
1.1569400734704751166
1.1569739371855225496
1.1569984085833322496
1.1570116082502908128
1.1570190102445765401
1.1570224300302671683
1.1570302169405219939
1.1570466379831287895
1.1570703466078218202
1.1570996601728074094
1.1494248718819062294
1.1503976102821122929
1.1514231800833234498
1.1524269844293089093
1.153358210703707476
1.1541767667597953029
1.1548459639275738819
1.1553402571490358763
1.1556624406208602096
1.1558668260598092825
1.1560389295314401625
1.156255416671671199
1.1565404453112959615
1.1568491572154326885
1.1570871149768391373
1.1571718011598732812
1.1570759265610093269
1.1568344480404133545
1.156517733873271947
1.1562000620776682336
1.1559379205943793867
1.1557722029730186364
1.1557277473492622022
1.1558174349597838404
1.1560309853153944992
1.1563195602227138714
1.156611039136925756
1.156834315309051453
1.1569537571527050979
1.1569725946285753793
1.156920974127864099
1.156827910772180612
1.1567045173612433562
1.156538177972591841
1.1567934213067447846
1.1568100137901893287
1.1568307536439954575
1.156857270338154553
1.1568920316703006357
1.1569359800043306219
1.1569878238642032908
1.1570452362346823616
1.157102892517568371
1.1571547170235496615
1.1571951102996442806
1.1572200539860320045
1.1572300021722248253
1.1572264511395502495
1.1572188662060758357
1.1572105843622437771
1.1572097350968610918
1.1572196371272285287
1.1572364932076018018
1.1572577873755072186
1.1501928118541473456
1.1512641092071762561
1.1523002969680729013
1.1532241327922596597
1.1540054053449169125
1.1546456418123893783
1.1551600559648065314
1.1555639488395663683
1.155880837086800339
1.1561372536184602033
1.1563661047002626869
1.1565853730112787279
1.1567862227441494394
1.1569290000474614644
1.156971778816168861
1.1568927309317442731
1.1567021168155198207
1.1564404119469198218
1.1561632157517875985
1.1559276560031725989
1.1557896761755195314
1.1557862454077720837
1.1559281290289209476
1.1561935941879573075
1.156515123275798862
1.1568173933331360459
1.1570252362065160945
1.1571152290133428497
1.1571093170000836814
1.1570401978725817216
1.1569349384333489361
1.1568010128455974428
1.1570488434453891635
1.1570649265527430671
1.1570957057355526487
1.1571400901906674363
1.157195934727202058
1.157259693211888818
1.1573257171476920568
1.1573868813920902276
1.1574366899088333049
1.1574689132402495861
1.1574801854077367835
1.1574726761335483172
1.1574495977494969612