/*--------------------------------*- C++ -*----------------------------------*\
  =========                 |
  \\      /  F ield         | OpenFOAM: The Open Source CFD Toolbox
   \\    /   O peration     | Website:  https://openfoam.org
    \\  /    A nd           | Version:  12
     \\/     M anipulation  |
\*---------------------------------------------------------------------------*/
FoamFile
{
    format      ascii;
    class       volScalarField;
    location    "0.0071";
    object      rho_0;
}
// * * * * * * * * * * * * * * * * * * * * * * * * * * * * * * * * * * * * * //

dimensions      [1 -3 0 0 0 0 0];

internalField   nonuniform List<scalar> 
106891
(
1.1566074157209700335
1.1565748701700735435
1.1565596757606702027
1.1565675661226539894
1.1565989753562975206
1.1566564971826764907
1.1567361816306218625
1.1568336708180693151
1.1569427993121179643
1.1570563615323954387
1.1571627198813294601
1.1482253536790254511
1.1487900778129247481
1.1494852082619955169
1.1502424466458325281
1.1510001182519897789
1.1517324087049809478
1.1524430463895116716
1.1531382065013462412
1.1537968781518503913
1.1543794021661266669
1.1548411098116337925
1.1551559760065441829
1.1553392340750037182
1.1554408110027580836
1.1555166403436214484
1.1556106325527208956
1.1557370784844158695
1.1558793308348365159
1.1560035875606340383
1.1560815828686259454
1.15610353929734333
1.1560799568046176145
1.156031920823432424
1.155974344592096914
1.1559054948849454281
1.1558099155372130173
1.1556763413689554731
1.1555142850040260871
1.1553597756871112345
1.1552646071220011859
1.155267104824151625
1.1553713156886673552
1.155540011544857304
1.1557115798689823194
1.1558361423138663326
1.1558934671643079639
1.1558981064520992277
1.1558849207226551403
1.1567299802688688626
1.1568188229941704925
1.1568764320569902004
1.1569027734869796742
1.1569017652362802995
1.1568795903811333048
1.1568432512595243633
1.1567996771201467521
1.1567546134013928505
1.1567137735111510111
1.1566825387725221397
1.1566648704878150777
1.1566664048298773704
1.1566887982020399583
1.1567377611024292072
1.1568114345060496184
1.1569075259923733423
1.15702177204187584
1.1571457747239324299
1.1572695300340296587
1.1489563836757583637
1.1496682271728682068
1.1504189215813989122
1.1511579465608601236
1.1518697108670623575
1.1525691293591018294
1.153260967074661858
1.1539233023487618368
1.1545110952296606666
1.1549774658140929962
1.1552999438706741397
1.1554906075239659291
1.1555983607186937068
1.1556833798110073275
1.1557869844494432776
1.1559211760332184227
1.1560682017790775422
1.1561955143977029614
1.1562768080385090741
1.1563058914840089741
1.1562960346417410218
1.1562709134721884663
1.1562439693481119107
1.1562093676624727312
1.1561405602220196087
1.1560109603706119064
1.1558196485194247582
1.155605385565777965
1.1554322502463134636
1.1553569489683441773
1.1554025036239738977
1.1555457791878485097
1.1557325915807281635
1.1559050568116580049
1.1560290869813667491
1.1561016306309410684
1.1568674734072785792
1.1569447960105185835
1.1569941210391210262
1.1570153875662614329
1.1570125791685992311
1.1569919034378197686
1.1569596219080207078
1.1569218736203004116
1.1568830114470354253
1.1568469633429430132
1.1568177748462216137
1.1567986518372179727
1.1567944019113771681
1.1568061342295214988
1.1568417078739863246
1.1569020270523391325
1.1569885104882537963
1.1570993941721154918
1.1572245417841415804
1.157355395496182604
1.149224174343482785
1.1499129389642079868
1.1506378668352796879
1.1513681179417494249
1.1521009793938479238
1.1528461081970022839
1.1535930699915220021
1.1543008013926692179
1.154903890758965046
1.1553484225926402562
1.155626766849483511
1.155775560952625014
1.155853942318792793
1.1559227684742610087
1.1560221464111326561
1.1561542327479079617
1.1562896903710382368
1.1563938989560649251
1.1564494000760416892
1.1564624828210352536
1.1564553884626065372
1.1564531348164370783
1.1564676580621675583
1.1564844951078996349
1.1564678263138141734
1.1563787046866527142
1.1562056570102070552
1.1559778497736137304
1.1557558868917117145
1.1556064240836674273
1.1555713709472981154
1.1556486610033991358
1.1557990058374201237
1.1559697781504856273
1.1561188354136280321
1.1562324108234338649
1.157068832690335336
1.1571099890249814113
1.1571259893244545403
1.1571205423404584689
1.157100498687640755
1.157072126081283292
1.1570404026322020918
1.1570082533083050347
1.1569777610745950458
1.1569511456023031659
1.1569314981496712225
1.1569246404805479944
1.1569319170816805276
1.1569606738919528954
1.157010202557712697
1.1570833574278154288
1.1571813996790401013
1.1572946818562950266
1.1574189971547865774
1.1499730426704652952
1.1505849642920056297
1.1512053369740777864
1.1518602130005672901
1.1525703007032344072
1.1533195321007934098
1.1540478928570911954
1.1546761845029727134
1.1551441208543824501
1.1554440276448676439
1.1556240105316217814
1.1557545190752078756
1.1558935770328762072
1.1560639150488627447
1.1562495869526199233
1.1564138601130704576
1.156527835223742029
1.1565888568933211378
1.156618494053491597
1.1566446223657993464
1.1566839944552980146
1.1567362080610164021
1.1567822415769000166
1.156787671115165006
1.1567181899958152158
1.1565595200841922718
1.1563295627996976744
1.1560790447627784516
1.1558727633310159622
1.1557638423597851318
1.1557725870596624596
1.1558826497345433548
1.1560507121911698381
1.1562322112092842108
1.1571556909042719496
1.157206706910711036
1.1572361991671169523
1.1572431362070196847
1.1572303205011695848
1.1572035854408260214
1.1571696002435203354
1.1571341074065910615
1.1571010209495042886
1.1570727285326829481
1.1570497729858011393
1.1570335116138998899
1.157028733470478965
1.1570365416328884933
1.1570644801468215057
1.1571096148489645739
1.157173128369236359
1.1572560390454575963
1.1573484235649100782
1.1574517292678252467
1.1503085208431163
1.1509813418476291247
1.1516490712958393772
1.1523382849379300019
1.1530598839803904987
1.1537875929380683182
1.1544601661567532869
1.1550104603788471369
1.1554000994809421332
1.1556371215462322155
1.1557772330057118904
1.1558975272687648239
1.1560496496801719868
1.1562342832083096766
1.156415878505323569
1.1565559036112804669
1.1566389413527995433
1.1566789416087008835
1.1567085221884778612
1.1567552273136050278
1.1568260815187481061
1.1569029102654677654
1.1569645651711959466
1.1569917831826954657
1.1569653120613314634
1.1568691911912509784
1.1567018953428473971
1.1564828967268356852
1.156258303961838152
1.1560865183032194015
1.1560141385093194444
1.1560547806943048954
1.1561846427069433219
1.1573807214581448566
1.157392306847181862
1.1573811536199434258
1.1573512254933711052
1.157308290214750679
1.1572592086724813321
1.1572101769654428161
1.1571657069403815665
1.1571305037776400404
1.1571065852430388876
1.1570946260476042688
1.1570972565391255404
1.1571123747661753445
1.1571447322195640428
1.1571889442712286478
1.1572441166289950676
1.1573095752553756999
1.1573755177868239041
1.1574490440003566416
1.1508527783921163046
1.1515644981357746612
1.1523180606447838148
1.153095372460938961
1.1538530823034098827
1.1545236666310354501
1.1550532228218595154
1.1554266158464159275
1.1556682478580657669
1.1558352559788600544
1.1559920014987461467
1.1561738547160920199
1.1563722872760995308
1.1565505035388254917
1.1566775768574142358
1.1567536687945212392
1.1568044845872902382
1.1568595027993944235
1.1569313570052985884
1.1570075622401245763
1.1570645174037970104
1.1570965737195617606
1.1571157478282836362
1.1571265483422310538
1.1571075059233741911
1.1570254116082450135
1.1568611633145371442
1.1566353240207629671
1.1564074249722628984
1.1562509236304909788
1.1562140075915126047
1.1562993946580650828
1.1576017267576794723
1.1575904231468920891
1.1575540184374637498
1.157497697452499974
1.1574290029845806238
1.1573559892591585019
1.157286562699096466
1.1572262768469978589
1.1571804078244674052
1.1571522239772558116
1.1571422825986794614
1.1571513257658760931
1.1571747162479961712
1.1572128863718831315
1.1572566826564729681
1.1573039018230950603
1.1573523567120294064
1.1573917907576232178
1.1574338594493396304
1.1517302159777260684
1.1524602224785391869
1.1531928624109450965
1.1538806595431545521
1.1544791019382500963
1.1549592235911747551
1.1553287255292721269
1.1556167750342001277
1.1558549185312816387
1.1560706872467672035
1.1562690114809863751
1.1564379864085740923
1.1565680857460465258
1.1566600007116381033
1.1567339188363889857
1.1568168595518091291
1.1569200795692304862
1.1570215268955672538
1.1570918321899366088
1.1571133681965317663
1.1570984837023023939
1.1570943719151753903
1.1571367016969671404
1.1572007123560756892
1.1572214714486452891
1.1571453862850633598
1.1569688533621516058
1.1567414473804185082
1.1565431922642581686
1.1564452170549743837
1.1578261226570829567
1.1577629972066636466
1.1576817803807457619
1.1575897600899818229
1.1574954783679733961
1.1574075784314274973
1.1573324583511737096
1.1572758005908572176
1.1572407778534181677
1.1572278469828458647
1.1572361170226659333
1.1572590820280137525
1.1572953383506734415
1.1573340086669656745
1.1573716659896853276
1.1574058559874738084
1.1574275543008409883
1.1574494543202502594
1.1524762959036871646
1.1531628001949192353
1.1537903780269356258
1.1543384151590130315
1.1548108711529543324
1.1552199923387813651
1.1555835871736070963
1.1559089664837907119
1.1561832767575292991
1.1563848197792503392
1.1565097369574262043
1.1565813610642576847
1.1566402991167921144
1.1567266645767091404
1.1568602857348311286
1.1570166634619951651
1.1571391877223460298
1.1571818396266924101
1.1571406947932647569
1.1570528893289051542
1.1569852094949089061
1.1569904276303570878
1.1570652196994293259
1.1571483984543298185
1.1571688225727476684
1.1570928238293469725
1.156950058572976614
1.1568099030114074033
1.1580904946224175323
1.1580085568477793689
1.1579134028112432198
1.1578121349235646065
1.1577114257692109334
1.157618128034789029
1.1575371566494230269
1.1574721904628006985
1.1574253973815042951
1.1573980531496017576
1.1573903657575990156
1.1573969074016521308
1.1574169152214406342
1.157441167303361107
1.1574672602746081118
1.157492458786947731
1.1575077142429628374
1.1575242350115129142
1.1529916957260726296
1.1536306068192381247
1.1541951729599797538
1.1546917909812131064
1.1551328400803957397
1.155528578174067178
1.1558773057779185844
1.1561580812976237631
1.1563509317808386978
1.1564583624782116544
1.1565146479311925187
1.1565818601776758356
1.1567017179885814571
1.1568775393230708026
1.1570588883505736888
1.1571856861562452856
1.1572037901257605785
1.1571129700444331423
1.1569705971506185627
1.1568435599690538584
1.1567855677257605773
1.1568153059562851226
1.1569012700213785472
1.1569869975420874475
1.1570295705237416684
1.1570222242070604679
1.1569913036555983243
1.1582811210758450216
1.1581920498053541735
1.1581022364603166253
1.1580147921914982767
1.1579320255905902748
1.1578550914209593259
1.1577850141771250936
1.1577229101200368078
1.1576705304885097636
1.1576307331400415013
1.1576036001368912309
1.1575922867088503931
1.1575922444930966115
1.1576044253526227568
1.1576259574256055895
1.1576465553169112965
1.1576718481761294477
1.1528098066922554121
1.1533855786140456701
1.153900477017144377
1.1543706790023098296
1.1547982182525013961
1.1551844757788733986
1.1555310173134876184
1.155835576640335205
1.156091004645442899
1.1562948442435503349
1.1564529092818365275
1.1565862733883078839
1.1567187208961806633
1.1568683364099598965
1.1570215567471668905
1.1571410069350589467
1.157178003284046186
1.157108119029063964
1.1569478401022830205
1.1567444525234968911
1.156557510491001084
1.1564340503419960893
1.1564014702501712595
1.1564652688046681561
1.1566040369450127923
1.1567803728190784174
1.156949963763773237
1.1585038234913127564
1.1584426608861535524
1.1583816944095646218
1.1583178741211619389
1.1582486666437643574
1.1581735578696381594
1.1580939059582084916
1.1580132278126504808
1.1579378061279255174
1.1578728014851817907
1.1578261787496328949
1.1577998330369589919
1.1577971050208040182
1.1578143497005100038
1.1578414574044626484
1.1578786938512721783
1.1523987864524596336
1.1530080169814242996
1.1535694997439900344
1.1540903638329125247
1.1545523163285758006
1.1549384849758781435
1.1552520112620987547
1.1555184702329883706
1.1557697997531521938
1.1560220821613078623
1.1562741999291621386
1.1565106080347662409
1.156717541624569412
1.1568824530352237456
1.1569897622393046088
1.1570321670703087591
1.157000621489724379
1.1568946248580243008
1.1567328774334917352
1.156551051129808716
1.1563887873339644408
1.1562728303851361744
1.1562225136321810925
1.1562543334530608341
1.1563683660892536409
1.1565434818446318488
1.1567423458988730367
1.1569224881561970264
1.1587339528154882995
1.1586968040633327526
1.1586481536657016189
1.1585837949022059767
1.1585029920678584503
1.1584084145857806991
1.1583062850740162286
1.1582062587740291626
1.1581176653945453037
1.1580504463426741779
1.1580083628087924907
1.1579950047397393753
1.1580068692877651948
1.158034416234918762
1.1580737444499200617
1.1525911035838756202
1.1531759080216459346
1.1537255543157245441
1.1542046817338285081
1.1545835693293333701
1.1548744906857726367
1.1551281789370904107
1.1553984483933781302
1.1557151666976615001
1.1560639840081416985
1.1563990972513120692
1.1566719935582510104
1.1568550094542322526
1.1569417330065416838
1.1569431681004134216
1.1568750247120354047
1.1567535148106344867
1.15659486182130955
1.1564248253075575246
1.1562691824933062357
1.1561518310647165286
1.1560982789315616959
1.1561209425720022637
1.156216616991736279
1.1563695730279051066
1.1565555067585080451
1.1567352783465387756
1.1589385649541263934
1.1588971761533124472
1.1588322622892712754
1.158743903664467334
1.1586370847050246891
1.1585204843578575939
1.158405724405789039
1.1583037466839118945
1.1582248252776321529
1.15817407839827613
1.158154635713986913
1.1581621211121704285
1.158187098027740225
1.158223445235975646
1.1530228872002954432
1.153547502730249974
1.1540014918261283228
1.1543477499432277522
1.1546044262919492596
1.1548374979057007828
1.1551173359743363012
1.1554731061827516747
1.1558722177471378867
1.1562446855176782279
1.1565266737639852135
1.1566887035782036364
1.1567426986932762834
1.1567217399801512645
1.1566544924807760086
1.1565600403516402839
1.1564495948739283993
1.1563293033211548
1.1562106545784398559
1.1561204757609979676
1.1560860004115172117
1.1561146579830179348
1.1561995736976566906
1.1563199450238770272
1.1564541775318415429
1.1565778161772364285
1.1591059377950758691
1.1590356547068558779
1.1589374803337113562
1.1588188013376781171
1.1586904191441955714
1.1585652211973920256
1.1584549671993491504
1.1583696133578833543
1.1583142580284409018
1.1582907343418060719
1.158293898502502417
1.1583155421871735857
1.1583487004995398628
1.1536454209484836575
1.1540968753665894475
1.1544257802542974289
1.1546575161505643337
1.1548675319881560597
1.155131030067643616
1.1554724662477986463
1.1558512528583768653
1.1561883145660349914
1.1564199318980825648
1.1565291810114479709
1.1565454686910456861
1.1565180515574149389
1.1564802144160528652
1.1564402021917481456
1.1563871381606851685
1.1563092434826283128
1.1562138025093173788
1.1561315293419194283
1.1560921401370631845
1.1561101249877392405
1.1561750307850640063
1.1562633881743094033
1.1563527332601526432
1.156429687541771445
1.1591958706508611598
1.1590873716725897946
1.1589584625144773167
1.1588218227340902899
1.1586909119364630083
1.1585774585624089017
1.1584898648147279321
1.1584327831273657505
1.1584065219374650724
1.1584060549167756182
1.1584246049624555841
1.1584546210819486323
1.15406176511620151
1.1543869448335342121
1.1546339898730770823
1.1548622986238190613
1.1551318936769978674
1.1554555551680421033
1.1557869032937932996
1.1560575293882910941
1.1562186956474642674
1.1562731934238230647
1.1562714128401385683
1.1562688871488153719
1.1562968834859936873
1.1563416526427290343
1.1563675435201237196
1.1563477752715960456
1.1562892882643225345
1.1562222609109560345
1.1561809949801700181
1.1561829778559280513
1.1562181255386605461
1.1562631042301547701
1.1562978398685725967
1.1563200722809314769
1.1544344091281311115
1.1547202462851040572
1.1549779379316500449
1.1552487249457743523
1.1555325560404305918
1.1557939910411567652
1.155982105396753834
1.1560703545030424078
1.1560835241411575591
1.1560791452817060776
1.1561116387923229265
1.1561969878254680921
1.1563058084956381322
1.1563856891629518131
1.1564036302999571859
1.1563658518177852841
1.1563053706534784926
1.156260166921340149
1.1562466180354886713
1.1562557636554462448
1.1562650581832030205
1.1562593392997657649
1.156246548200218216
1.1548711114653191778
1.155193138248950202
1.1554683627296946646
1.1556771806664738467
1.1558034203080553848
1.1558474602872133019
1.1558467891632431268
1.1558649395895683742
1.1559446216941065
1.156088159969711926
1.1562542686996679642
1.1563848768047888527
1.1564456104470239861
1.1564401412169611483
1.1564027182869243138
1.1563686417964045283
1.1563493154486197412
1.1563342245228001026
1.1563054559482386363
1.156257222836398979
1.1562101613789443899
1.1558604267290437662
1.1558493321141258825
1.1558273163842296416
1.1558473420771482321
1.1559411632881306797
1.1560980282748094528
1.1562704489606234759
1.1564034397283458055
1.1564673108919270028
1.1564699538486069574
1.1564451827868600375
1.1564222497413874091
1.1564063776018729257
1.1563856623359971554
1.1563463488444134519
1.1562913600930111446
1.1562493926673591549
1.1559771351975898224
1.1561369008079143139
1.1562967636770040691
1.1564126910189456154
1.1564674018298948255
1.1564778784251144028
1.1564731728900414787
1.1564707937016898143
1.1564682774555312683
1.1564498689134821152
1.1564050561172842801
1.1563466580695922481
1.1563099848294247085
1.1561979288522548082
1.1563373525545450615
1.1564268665974628547
1.1564664921542135989
1.1564804782737192479
1.1564951106410468196
1.1565167347944727005
1.1565321512949235938
1.15652215327838781
1.1564801050378139546
1.156425913373003711
1.1563981990134073463
1.1499151873021562498
1.1493122642405992906
1.1487599239245445126
1.1483487253233897185
1.148088200389156821
1.1479317494756731133
1.1478089267441402566
1.1476537806900171113
1.1474136121455054127
1.1470780350410194615
1.1466933925761486623
1.1463727637786680358
1.1462551587478251314
1.146444048071189048
1.1469578991465589901
1.1477161802073276853
1.1485639517922634489
1.1493245326998489109
1.1498457474651075927
1.1500370627288929448
1.1506587777265377959
1.1502382557322261558
1.1496309816557874761
1.1490205070815227018
1.1485431463875717117
1.1482391611026740996
1.1480730175078588395
1.1479736128528941208
1.1478598270745070664
1.1476560603562040441
1.1473242574211897082
1.1468898809070067202
1.1464554847998895681
1.1461672548047221465
1.1461514155183301078
1.1464662666006852909
1.1470787863058717893
1.1478769924676850422
1.1487064930408437124
1.1494055084056378213
1.1498410045901859
1.1499300132565055677
1.1501254053160909763
1.1506066602971032342
1.1507030767878487776
1.1504013540245030534
1.1498348101351640871
1.1492030535649586653
1.1486768609559385723
1.1483294965196255699
1.1481435239250856739
1.1480504983714070466
1.1479600915219287938
1.1477800539683342684
1.1474516353146961833
1.146986444377616321
1.1464806128109563677
1.1460788927901612855
1.1459176363396579301
1.1460745037692274817
1.1465421484276230313
1.1472424830442813359
1.1480520965481317841
1.1488255543043646156
1.1494202766808658822
1.1497235823411851019
1.1496773044136694431
1.1492984409973299176
1.1492746240652742529
1.149802217341030719
1.1500876698205098059
1.1500245895000178464
1.1496284199692281547
1.1490387344063492936
1.1484429413636680906
1.147989791549272276
1.1477332242902102966
1.1476361342727252612
1.1476180092497922924
1.1475864391135568443
1.1474563606586019038
1.1471814248739047315
1.1467921334560848834
1.1463966148249533639
1.1461347246467108452
1.1461178397251985395
1.146380805365734723
1.1468724249547255223
1.1474850781150069956
1.1481009700403168594
1.1486131626146496298
1.1489364624011040306
1.1490133134277826787
1.1488178918782920857
1.1483736948731935179
1.147746503927421502
1.1487715315723709963
1.1486675258214797957
1.1484744772494654974
1.1481998413708593976
1.147827636723417255
1.1473810073534711496
1.1469403547365193408
1.1466052927382919258
1.1464356998144047406
1.1464302175825553665
1.1465360626261471566
1.1466912798956907515
1.1468430057453502524
1.1469514023664151292
1.1469951110887572909
1.1469976692397307882
1.1470162840320357045
1.1471043218444008094
1.1472714482074342079
1.1474665581895779898
1.1476061273869890833
1.147622514453189746
1.1475013159744622548
1.1472727599471268523
1.146979100457171219
1.1466440505415094187
1.1462702554180381753
1.1458637133255569207
1.1454522495968391116
1.1450994179112579108
1.1473815219142329269
1.1474003258418827844
1.1474598060514846765
1.147544630981087499
1.1475946488942039281
1.1475286164575995151
1.1473265694274077386
1.1470569858243151451
1.1468287676642894279
1.1467225236504428043
1.1467613580104722981
1.1469144759408795853
1.1471266201094865167
1.1473349788124933557
1.1474774284278823622
1.1475087708247402318
1.1474336338661865753
1.1473057536102837517
1.1471956036476909091
1.1471440650806239425
1.1471359273228922682
1.147125821915053967
1.1470792102384566036
1.1470033565056900748
1.1469379903967458212
1.1469166440417783992
1.1469388934477950936
1.1469708622927798913
1.1469695393231131852
1.1469149368340936235
1.1468216755114784
1.146738702317139813
1.1486068000815885526
1.148616371792408497
1.1486456609544941632
1.1486878990903339748
1.1486942061030542828
1.1485949978821425876
1.1483783135759098037
1.1481272934879565017
1.1479653498782438348
1.1479767729386483044
1.1481718716312234729
1.1484957539872915344
1.148857556842185268
1.1491605858505695714
1.149323309587356956
1.1493077066741854697
1.1491429257208645165
1.14892228255592177
1.148753723197142973
1.1486985522117671987
1.1487468284250799133
1.1488360511421844556
1.1489101658075868695
1.1489544126538817626
1.1489919562742947345
1.1490448146795979589
1.1491066026529261901
1.1491440678204771775
1.1491173479952956349
1.1490112307679922754
1.1488498574765177995
1.148691493503814165
1.1486199018725082865
1.1464356026893607332
1.1466385113812334051
1.1469501018118415381
1.1472370987367781492
1.1473851015604039638
1.1473084405332982794
1.1503716033794535445
1.1503663288160770328
1.1503901389250879017
1.1504381523665603293
1.1504539933975095334
1.1503618515374982589
1.1501438429971324595
1.1498824760269736878
1.1497062551864212221
1.149701795251587999
1.1498780834445450072
1.1501780687553140314
1.1505073636732059406
1.1507665481453543954
1.1508758243654066966
1.1508013323222774371
1.1505773322858945384
1.1503037268908995472
1.1500924657723559097
1.1500034255118314341
1.1500222137510869302
1.1500798896048070041
1.1501167862634180672
1.1501188231283521191
1.1501126721677050746
1.1501245839682345817
1.1501475420889162304
1.1501480046097638521
1.1500811570392881489
1.1499291641697744204
1.1497127771496420401
1.1494947990517228043
1.1493639180357186902
1.149400701255464341
1.1490439148185638274
1.1490145353928045147
1.1492295728539165811
1.1495604850681624409
1.1498712090346403514
1.1500334357102344196
1.1499492015806065393
1.1520029517158090204
1.1519673559507306315
1.1519616285208704731
1.1519814567025465912
1.1519653032216581323
1.1518335255714822196
1.1515715580300680543
1.1512639738225440844
1.1510445642422120205
1.1510024419618538616
1.1511464899579262333
1.1514163323635273617
1.1517181937796003854
1.1519481700825437986
1.1520263456880757147
1.1519181878304893818
1.1516593194180273496
1.1513520237764802712
1.151111732375282859
1.1509982034842334286
1.150992891476417368
1.1510266115882312743
1.1510376593944957602
1.151012745137601101
1.1509814144824757065
1.1509707658163550459
1.1509746125228330627
1.1509548388491690485
1.1508671733034943063
1.1506913499085029695
1.1504459029152891425
1.1501983352154319107
1.1500388153492433485
1.1500542187076321365
1.1502760839497905287
1.1563666002392745114
1.1563739788710361012
1.1563874080211211659
1.1564013750745412157
1.1564093629724936374
1.156410814073564497
1.1564064751423581701
1.1564038560541620715
1.1564072304655297341
1.1564237188550419155
1.1564553604302223455
1.1481467665218627605
1.1488874993130986368
1.1497024848113717166
1.1505454831509318581
1.151421153483000559
1.1523404316362819699
1.1532621806829019828
1.154082942267793177
1.1546884040442766395
1.1550290543597612203
1.1551700134581663892
1.1552660814436219727
1.1554483364958108016
1.1557633353231531181
1.1561390244026947816
1.1564466338879009211
1.1565968420952614792
1.1565748816653949049
1.1564339675053534329
1.1562531762154497628
1.1560818726015844593
1.1559277693506198048
1.1557791540635700134
1.1556412219294238675
1.1555451370427511915
1.1555320874476056048
1.1556296254688775971
1.1558268467359937848
1.1560731083176798428
1.1562957421623225596
1.1564394947475966635
1.1564833069861890635
1.1564402413056584784
1.1563357742068118839
1.1561899886221556066
1.1560066313315890962
1.1562780516952289034
1.1563805152424950773
1.1564575512941723812
1.1565059340043761793
1.156527205995949048
1.1565271944316977137
1.1565143165027946814
1.1564978570037065531
1.1564866075182840266
1.1564862551387489198
1.1564982680741411336
1.1565204603678620465
1.1565472414656672306
1.1565729122028811648
1.1565910425278378426
1.1566022267679239022
1.1566069259677356218
1.1566126692634881579
1.1566243384182492981
1.1566472439506383374
1.1566826038687361144
1.1481590947986639595
1.148907827272541704
1.1497573303947012935
1.1506567761653050397
1.1515963424603272713
1.1525635567922469793
1.1535080216119664165
1.1543249469493710446
1.1549099220276968225
1.1552341309742284459
1.1553727437647323129
1.1554813639354855059
1.155694033279491606
1.1560485747302462478
1.1564638997919463037
1.1568001581286986301
1.1569503708710087153
1.1568914392994373852
1.156683329991609277
1.1564186170114083563
1.1561650285756164269
1.1559503231144914182
1.1557796260674919608
1.1556635989515302576
1.1556245719063478194
1.1556855479940570941
1.1558509837959853872
1.1560878838839507843
1.1563373099926212983
1.1565391041836958763
1.1566466736697744722
1.1566573111836166987
1.156593806776400335
1.1564797520042588985
1.1563205184620917176
1.1561123498273839783
1.1564084384982917797
1.156487471267287459
1.1565468236230085353
1.1565852064145949463
1.1566048985468251331
1.1566114013770640856
1.1566124403351667471
1.1566154003499378167
1.1566258011993399979
1.1566463803452173842
1.1566760394585706706
1.1567102824407489159
1.1567437574311112414
1.1567728834978163732
1.1567930316962913295
1.1568068317647286491
1.1568150672572525828
1.156825268906403581
1.1568418027435563022
1.1568668911917954212
1.156900848063230125
1.149051325453823269
1.1499239847728146557
1.1508626238236312478
1.1518318793864834593
1.1527990603493325494
1.1537094097705453688
1.1544842580444059088
1.1550450025769807283
1.1553777858645848386
1.1555532719162813216
1.1556997296450661761
1.1559343403893997948
1.1562885075261883916
1.1566875349815344265
1.1570030477626793708
1.157130157567288764
1.1570439696101346705
1.1568014046740355827
1.1564900949154419685
1.156186799092470574
1.1559387080741065912
1.1557660544385721657
1.1556861465074115269
1.1557143139271712773
1.155858794798736211
1.1560915790818071525
1.1563587453870645128
1.1565994395278267337
1.1567575860373073837
1.1568171321307509913
1.1567940902415407844
1.156716138917015968
1.1565995406907445542
1.1564377987338432252
1.156613680325859761
1.1566502566696075238
1.156678040879916658
1.1567003058717020281
1.1567213770261082217
1.1567449619743559452
1.1567742509659659778
1.1568103171568702159
1.1568516511921993484
1.1568956459580370666
1.1569371867477273863
1.1569708387740420541
1.1569949762866047482
1.1570078130145009521
1.1570149444279023143
1.1570182975489720079
1.1570262445120613748
1.1570429177509602425
1.1570667979059283681
1.1570960189997268053
1.1494346825729353512
1.1504101809722349081
1.1514367262039753026
1.1524401823682854928
1.1533701089538752615
1.1541863693994844908
1.1548522713583353472
1.1553428046215448166
1.1556622066842281438
1.1558662838902733494
1.1560409620987226464
1.1562616308890085737
1.1565500515264404147
1.1568589797453545653
1.1570932879720827735
1.1571720597933501384
1.1570703135808770856
1.1568252160354002278
1.1565077435897066493
1.1561918574570806406
1.1559332258369670043
1.1557721498827195905
1.1557327018986063294
1.1558274711408256241
1.1560446598209404012
1.1563344803938999661
1.1566242556779497974
1.1568438430374650139
1.1569592437557081332
1.1569750027179668272
1.1569218523700217638
1.1568282961607487813
1.1567042431119065604
1.1565363157010142281
1.1567889032913207803
1.1568057229014432341
1.1568268535654175899
1.1568538490951647546
1.1568891335255773178
1.1569335384842007741
1.1569857491268296101
1.1570433968954487725
1.1571010691122420866
1.1571526858941605376
1.15719266074546967
1.1572170206255496527
1.1572263561778952656
1.1572223394078922087
1.1572145337561328127
1.1572062674113405834
1.1572056221281550314
1.1572157531048568035
1.1572326563150237
1.1572536354526217206
1.1502087077732481291
1.1512801814665691857
1.1523139123533652217
1.1532342413034446515
1.1540122372210284141
1.1546501023102915262
1.1551629317232285921
1.1555659932957982328
1.1558826909730290922
1.1561397338540715385
1.1563698375682176511
1.1565902307412656569
1.1567909715096069689
1.1569317799937803848
1.1569712445951256807
1.1568885497449048483
1.156695231319211814
1.1564326895933474404
1.1561566968191687721
1.1559244364977150354
1.1557912882661707243
1.1557933925979817502
1.1559403915554353759
1.1562089795131869074
1.1565307505871504912
1.1568302882062972969
1.1570334879752595114
1.1571193660316783092
1.157110795706903783
1.1570405636966185625
1.1569350228801664748
1.1568006476154963913
1.1570449568370131388
1.1570619599208848971
1.1570936377310614418
1.157138791207263262
1.1571952308684931854
1.1572593008993101726
1.1573252782347467349
1.1573860606247983185
1.157435199078390875
1.1574665752978992028
1.1574770096497712935
1.1574688271700583897
1.1574453464786020884