/*--------------------------------*- C++ -*----------------------------------*\
  =========                 |
  \\      /  F ield         | OpenFOAM: The Open Source CFD Toolbox
   \\    /   O peration     | Website:  https://openfoam.org
    \\  /    A nd           | Version:  12
     \\/     M anipulation  |
\*---------------------------------------------------------------------------*/
FoamFile
{
    format      ascii;
    class       volScalarField;
    location    "0.0145";
    object      alphat;
}
// * * * * * * * * * * * * * * * * * * * * * * * * * * * * * * * * * * * * * //

dimensions      [1 -1 -1 0 0 0 0];

internalField   nonuniform List<scalar> 
75962
(
5.5567058634184720486e-07
6.6373760557594866229e-07
7.4754674401650749563e-07
8.6550699717012782289e-07
1.0074895178073080273e-06
1.1104436300083158205e-06
1.1861396830564249083e-06
1.2841198250530239852e-06
1.4033826783769665445e-06
1.5047683350957263591e-06
1.572631334870727995e-06
1.6414904411907772588e-06
1.754023309223881626e-06
1.9055486198826878264e-06
2.0510843020825092231e-06
2.1624917854180194415e-06
2.2424872167220489189e-06
2.2974127942951272962e-06
2.3379755353895891822e-06
2.3913474022770759996e-06
2.4817024119302554747e-06
2.6047233074151373842e-06
2.7329227749536154677e-06
2.8371215166595523986e-06
2.9042473555862179669e-06
2.9420578310201129978e-06
2.9820429030680818436e-06
3.0667179519286422488e-06
3.2717973670682725889e-06
3.5042778852259466612e-06
3.6704387378348156164e-06
3.7528212265991661302e-06
3.7735177688382441669e-06
3.7715094983259964652e-06
3.7708501995550878494e-06
3.7967903027347578666e-06
3.9102445860616623171e-06
4.0662010642510552417e-06
4.174577479996361425e-06
4.2389671336344417416e-06
4.2706188029413344457e-06
4.2880520476840992581e-06
4.3127736247364117768e-06
4.367268668830938417e-06
4.4904709705821233663e-06
4.646309329282091777e-06
4.7950856516322454945e-06
4.9113396075586920146e-06
4.9834424185518359676e-06
5.017202317846696511e-06
5.0311519309571143115e-06
5.0475219677344090297e-06
5.0878862487541423465e-06
5.1974988327381483428e-06
5.3227062698141626291e-06
5.4201950285484864104e-06
5.4964701973243526424e-06
5.5643328092132262862e-06
5.6297092831148750025e-06
5.6900721223554584795e-06
5.7418519010729430246e-06
5.7872770625356031405e-06
5.8381952434675182098e-06
5.9092800846829165805e-06
6.0080060218464396426e-06
6.1262785505172639798e-06
6.242009136861834653e-06
6.3321988959533906708e-06
6.3881536363503616714e-06
6.4208353695401820051e-06
6.4545667416593519958e-06
6.5118988299934325915e-06
6.5985573139955426726e-06
6.7015864625127985585e-06
6.7993117362850923039e-06
6.8751071911611454508e-06
6.9231162567308957711e-06
6.9470820515487292807e-06
6.9563000619495949883e-06
6.9628031713563275177e-06
6.9783130298851590642e-06
7.016772794505597866e-06
7.1090358819631832571e-06
7.2328839640211289047e-06
7.3643161709340612946e-06
7.4918422889928302713e-06
7.6024260472878510015e-06
7.6840170864689733157e-06
7.7321897025222046784e-06
7.7554774970651026476e-06
7.7702180094171257712e-06
7.7921441580882589215e-06
7.8294167953287165394e-06
7.881557722381488191e-06
7.942460681814125472e-06
8.0026059178280750948e-06
8.0522574471531565583e-06
8.0849045707479543806e-06
8.1018439880572873661e-06
8.1112732677899364325e-06
8.1250023254981493866e-06
8.1565360190571019496e-06
8.2330496997930894035e-06
8.3549764341491255599e-06
8.5030903566170212729e-06
8.6646506118463738637e-06
8.820248959303368338e-06
8.9506087917759301733e-06
9.0443367879413429653e-06
9.0996173691699485742e-06
9.1238502949755010692e-06
9.1279795841341888137e-06
9.1232567549394484775e-06
9.1135911599078254402e-06
9.0955933934882499743e-06
9.0811865734074921722e-06
9.0721086242677520674e-06
9.065815605139116107e-06
9.0648873714892939317e-06
9.0853431267330223345e-06
9.1522821482954023803e-06
9.2353760857080984572e-06
9.3291140408420247267e-06
9.4351714672881257108e-06
9.5520577700268902339e-06
9.6779052837381323747e-06
9.8078942189578626897e-06
9.9343848915133922315e-06
1.0045730809904955251e-05
1.013003098137393629e-05
1.0181664761875349083e-05
1.0201371544833351217e-05
1.0200196549375169797e-05
1.0189521248624888833e-05
1.0160712688351848429e-05
1.0103947714661741967e-05
1.0060376613576771027e-05
1.0035617401991712121e-05
1.0023432589960249049e-05
1.0016759287851073908e-05
1.0013602651048558408e-05
1.0028165738959014927e-05
1.0090142732009857525e-05
1.0174919112995001622e-05
1.0266416593267433738e-05
1.0366874444305421287e-05
1.0474615668910201412e-05
1.0584484665340879736e-05
1.068991807922824485e-05
1.0782931101747233598e-05
1.0854050636186920745e-05
1.0899195875279780218e-05
1.0917865976317693615e-05
1.0918205347706213661e-05
1.0910075628362112568e-05
1.0895933944721506516e-05
1.0863972246447747537e-05
1.0834529130801623286e-05
1.0818709244192478429e-05
1.081075324834776603e-05
1.0811118301968261919e-05
1.0844426962679341666e-05
1.0968825674644204637e-05
1.1118874152878190006e-05
1.1235983440303496712e-05
1.1322999298341264115e-05
1.1383916296494572587e-05
1.1425338794083378979e-05
1.1456101415752652345e-05
1.148349115761488773e-05
1.1512547874073183769e-05
1.1546827560062617918e-05
1.1585057825996554647e-05
1.1622940730683147608e-05
1.1653881135943907466e-05
1.1673567202057455683e-05
1.168049532319645012e-05
1.1677360256559630465e-05
1.1669276685626830896e-05
1.1653875473466389679e-05
1.1612782179304959661e-05
1.1547561576456064289e-05
1.1498633406809989402e-05
1.1468341337863841768e-05
1.1452131079260052443e-05
1.1442967492699219546e-05
1.1448216550989103279e-05
1.1502730074825810998e-05
1.2426434890050492776e-05
1.2403435980935401546e-05
1.2359833228705826265e-05
1.2322506881967780083e-05
1.2297529996058629466e-05
1.2282705051492097292e-05
1.2273321433985596537e-05
1.2265554447570695612e-05
1.226555677464617183e-05
1.2293971003586825593e-05
1.2341314774472745522e-05
1.2379682029018650988e-05
1.241232303544277161e-05
1.2442547347169252218e-05
1.2474814720169234228e-05
1.2512309988432614304e-05
1.2556339688756557477e-05
1.2606486681297410834e-05
1.2659418085947882952e-05
1.2710930225005382454e-05
1.2756384025780975736e-05
1.2792050662909162662e-05
1.2816507667976842431e-05
1.2829349550606482889e-05
1.2832933146242898713e-05
1.2829398847872320363e-05
1.2822689196362118706e-05
1.2814790320971204736e-05
1.2804311931293447507e-05
1.2782660760935862549e-05
1.2738598313909137844e-05
1.2696219134319681925e-05
1.2661668769289561538e-05
1.2634662927708727935e-05
1.2614638418170103401e-05
1.2599291248219996719e-05
1.2586805445310124681e-05
1.2577978273129087781e-05
1.2577978637709783126e-05
1.2600185761565765061e-05
1.2652516110406897455e-05
1.2711892616546919543e-05
1.2776522003113985085e-05
1.2843431208733605339e-05
1.2907595777904932858e-05
1.2964625931483708831e-05
1.3010512392373333419e-05
1.3043441051032281556e-05
1.306338076817309865e-05
1.3071823723401702533e-05
1.3071136761053142779e-05
1.3064203044654102378e-05
1.3054227530392700579e-05
1.3043571500656813377e-05
1.303005788458671864e-05
1.3005590805838069686e-05
1.2950188738772279459e-05
1.2886073237686187712e-05
1.2832731667136842161e-05
1.2791399993715116374e-05
1.2760916283910736564e-05
1.2739585143425959281e-05
1.2724785843672978809e-05
1.2713383516510040077e-05
1.2705427168267100638e-05
1.2706775193036059198e-05
1.2733855697213612262e-05
1.2790693024573650832e-05
1.2847165753101755941e-05
1.2901604586028136501e-05
1.2952395896586076714e-05
1.2997907509111908004e-05
1.3036348127452236615e-05
1.3066645082656877676e-05
1.3087870422475006066e-05
1.3100805004949191834e-05
1.3106277262500625361e-05
1.3105628912689630712e-05
1.3100307608918326257e-05
1.3092202054677394931e-05
1.3083189295346040246e-05
1.3073907202686315182e-05
1.3062750421897440873e-05
1.3044970111015532187e-05
1.3014364512315333724e-05
1.2982022240481814112e-05
1.2950323035901159345e-05
1.291759908924343915e-05
1.2883679880592742496e-05
1.284877294833472141e-05
1.2813942218844346033e-05
1.278104113570172946e-05
1.2752538526867904342e-05
1.2730627610916613022e-05
1.2716062210101394109e-05
1.2706147004998673898e-05
1.2699658809624721223e-05
1.2705339447381576253e-05
1.2751026865667129838e-05
1.2894408499191305112e-05
1.3053587114770029499e-05
1.3183795298104750423e-05
1.328500843996836669e-05
1.3359065217707770626e-05
1.3411287827533938043e-05
1.3446033795912301468e-05
1.3467319046835573074e-05
1.3478055944668348838e-05
1.3479821279217705989e-05
1.3475112773915859051e-05
1.3467098200089439502e-05
1.3455470304591670328e-05
1.3430933841980442184e-05
1.3364740527510363049e-05
1.3228282423671935486e-05
1.3098485392792463258e-05
1.2988242502235604567e-05
1.2901018541614948506e-05
1.2836605258535552107e-05
1.2793110905635004957e-05
1.2766653743800314538e-05
1.2751047186557458893e-05
1.2740794819911067793e-05
1.273528219314933186e-05
1.2746697675539900077e-05
1.2812556229811957614e-05
1.2934103222548845594e-05
1.3038871644190472992e-05
1.3121183958032216351e-05
1.3180391528758735501e-05
1.3218767979569894316e-05
1.3240640533429773808e-05
1.325031583318883599e-05
1.325286146074047636e-05
1.3251350239614819181e-05
1.3247840348186004902e-05
1.3243328880113206433e-05
1.3237434430424023263e-05
1.3229039933113541174e-05
1.3214983175657194395e-05
1.318726967326610507e-05
1.3121265311766502248e-05
1.3023652689587337871e-05
1.292955114163919939e-05
1.2842055596700966043e-05
1.2763290980949789209e-05
1.2695245585707251858e-05
1.2638348033108339584e-05
1.2593865111211831925e-05
1.2560738028121531609e-05
1.2538659708599547569e-05
1.2524265725077059417e-05
1.2513899517900827583e-05
1.2508959074594355808e-05
1.252281224710355554e-05
1.2596569320714813125e-05
1.2733054666760565906e-05
1.285151667893451816e-05
1.2945601301578967075e-05
1.3015598070201295198e-05
1.3063472752251765929e-05
1.3093401505211253117e-05
1.3109382277666610045e-05
1.3115183009670457819e-05
1.3114176196786150118e-05
1.3108375710771286938e-05
1.310003822795773741e-05
1.3089987327980660348e-05
1.3077886491854965399e-05
1.3062588543856151822e-05
1.3039358400339948961e-05
1.299214930101182256e-05
1.2903190325908862042e-05
1.2808911024119260178e-05
1.2715312890954916998e-05
1.2625580356549669512e-05
1.2542889927657979639e-05
1.2470843791959481891e-05
1.2412105904935919268e-05
1.2368843721737152178e-05
1.2340156408485171449e-05
1.232347730923175118e-05
1.2313196741728884605e-05
1.2306846751485345145e-05
1.2316039256557797881e-05
1.2377488321641534242e-05
1.2516404591872549347e-05
1.2640004763687790455e-05
1.2738714430634169906e-05
1.2812668413974778893e-05
1.2864777567537417517e-05
1.289901035210604169e-05
1.2919413007725874824e-05
1.2929603097393881713e-05
1.2932765982966710791e-05
1.2930777388329304031e-05
1.2925356308529544944e-05
1.2917684861931934487e-05
1.2908635918635348843e-05
1.289927125273989578e-05
1.2889379795297164011e-05
1.2878008745087447733e-05
1.2862382485048717707e-05
1.2834027108765191713e-05
1.2767620058118034967e-05
1.2668881299768866184e-05
1.2568547233784058324e-05
1.2470258769411686492e-05
1.2378252998197381227e-05
1.2297277850691294818e-05
1.2231167810433214797e-05
1.2182146524399553491e-05
1.2149853558882692833e-05
1.213094963868558512e-05
1.2120581183373073625e-05
1.2113855368866784969e-05
1.2117446579668943318e-05
1.2155189345990529535e-05
1.2274820604701447017e-05
1.2406841365190160985e-05
1.2517423457300332965e-05
1.2606116885031317819e-05
1.2673815491706184996e-05
1.272227797001669551e-05
1.2754797841406473693e-05
1.2774601911218146875e-05
1.2784961572474924101e-05
1.2788530908567065191e-05
1.2787627995579000579e-05
1.2783649092561009066e-05
1.2777846107106729056e-05
1.2771132590490899065e-05
1.2763840458469971674e-05
1.2755129942466306514e-05
1.2740348710905864151e-05
1.270539128633026099e-05
1.2607708537564984058e-05
1.2456696273705072792e-05
1.2315987398573257218e-05
1.2192461101826876078e-05
1.2090999777887720472e-05
1.2013823343528057006e-05
1.196064781213168874e-05
1.1927829487914234306e-05
1.1909539455448223304e-05
1.1898711694080237275e-05
1.1891722312296370523e-05
1.1897457558684678336e-05
1.1944928230534568311e-05
1.2069206797371774179e-05
1.2190712235430208496e-05
1.229315393360334407e-05
1.2376788211965709393e-05
1.2440435162037925693e-05
5.8716732050613098733e-07
6.9613174043450411815e-07
8.5833374298563994184e-07
9.9984724264610931799e-07
1.0777504531568673532e-06
1.1220955003295000557e-06
1.1995861634248711057e-06
1.3395827323391336675e-06
1.5055262229289601599e-06
1.6481688710218204174e-06
1.7385478317867849036e-06
1.7824885913019478627e-06
1.8255581961972518617e-06
1.9190771527522538729e-06
2.0742018902935670662e-06
2.2288175749954146536e-06
2.3662571591049264497e-06
2.4713688826164004355e-06
2.5311384885685789789e-06
2.5613918064801934352e-06
2.6001627186547896849e-06
2.6904786885139466577e-06
2.8545684648517595076e-06
2.9960287199346516037e-06
3.0863235942093584126e-06
3.1322559035470645722e-06
3.169391984270136413e-06
3.2428110825073552314e-06
3.4166521740502051086e-06
3.6321581544099272738e-06
3.8003902240498760239e-06
3.8938564788193307252e-06
3.9242748003093338072e-06
3.9269561588480293157e-06
3.9298129306100070262e-06
3.9556089929706331445e-06
4.0704268349875944222e-06
4.2749957090903912703e-06
4.4167130813367073633e-06
4.4943480415604931309e-06
4.5278736109479756353e-06
4.5442132334231434416e-06
4.5692690301557262869e-06
4.6280579158242118797e-06
4.7586855825854177871e-06
4.9101787850433329671e-06
5.0476142568714704893e-06
5.1523897050061259845e-06
5.217155652852013775e-06
5.2475594913038985535e-06
5.2588388747423825932e-06
5.2694500206414729527e-06
5.2958558965271226629e-06
5.3756225353187519917e-06
5.5639219148192941831e-06
5.7386745251311423242e-06
5.8423779992716524487e-06
5.8888497616396884274e-06
5.927530395676657177e-06
5.9894666896961956204e-06
6.0695059327806391152e-06
6.1491315640017854012e-06
6.2221779451839165267e-06
6.2975296731507953858e-06
6.3812707004926074854e-06
6.4693537710186097025e-06
6.5490336585687015353e-06
6.6076965414147550968e-06
6.6445046487558324862e-06
6.6745229925448655651e-06
6.7215002127282961499e-06
6.8036706645797026413e-06
6.9209973448089223892e-06
7.0533823864986808466e-06
7.1731717521353764171e-06
7.2630478160031903322e-06
7.3224365778057049316e-06
7.3609332882587251087e-06
7.3862625796172598068e-06
7.4022652996421270575e-06
7.4150113119990425392e-06
7.4372888812628577609e-06
7.4848105897154100407e-06
7.5689979738185540382e-06
7.6885628817123503567e-06
7.8296615318147814018e-06
7.9692544202605849422e-06
8.0829775401341748872e-06
8.1559758678344970143e-06
8.1894629832146891631e-06
8.1985170781858532731e-06
8.203912416202414261e-06
8.2201105605386185686e-06
8.2677360898775434942e-06
8.3361000072472728786e-06
8.4022583649158248936e-06
8.4606921428198955215e-06
8.5127880866927647707e-06
8.565390971707705073e-06
8.6251633147991634432e-06
8.6943928688562030277e-06
8.7722869243635798496e-06
8.8573775993023033584e-06
8.9507440031047087037e-06
9.0550604053034861556e-06
9.1687513032807586562e-06
9.2828007302761795215e-06
9.3837469511901277673e-06
9.4616825800088026778e-06
9.5124273414564107293e-06
9.5386914638115192822e-06
9.5465691256923993754e-06
9.544201264558110391e-06
9.5369158362639324674e-06
9.5237541757214616713e-06
9.5117266606936560998e-06
9.503020778774366937e-06
9.4989411296261888281e-06
9.515593140877469486e-06
9.6013090327979580036e-06
9.760465756874109897e-06
9.9027736194301093465e-06
1.0024900593547364836e-05
1.0129068340117708001e-05
1.0220326976697115555e-05
1.030580583278842044e-05
1.0391049769949430473e-05
1.0476620009710277618e-05
1.0555172291705787382e-05
1.0617244383531162849e-05
1.0656050733272740623e-05
1.0670710897710887857e-05
1.0668895895445437339e-05
1.0658593803515739275e-05
1.0631125298754340254e-05
1.0585550545164181655e-05
1.0555104353005182968e-05
1.0539584431731159497e-05
1.053301989785328348e-05
1.0531809556749088883e-05
1.0552487685412850936e-05
1.0639422420991556838e-05
1.0756671370789035731e-05
1.085975670807509864e-05
1.0952048695305989441e-05
1.1036346129567342294e-05
1.1115401297146091438e-05
1.1192818374578397889e-05
1.126924357630789661e-05
1.1339482565126666775e-05
1.1396099263601411615e-05
1.1433392586640810581e-05
1.1449684788670187844e-05
1.1450027248886156779e-05
1.1442228875489693607e-05
1.1431803758555571286e-05
1.1412472441966153605e-05
1.1389391512724264288e-05
1.1374722316583276812e-05
1.1366213031005302489e-05
1.1361964396714816858e-05
1.137701113133698477e-05
1.1451397007071827553e-05
1.1557772636085622282e-05
1.1650511649618728661e-05
1.1733269360301149634e-05
1.1808357472634539685e-05
1.1877467044009882847e-05
1.194195473112501738e-05
1.2002706254712855628e-05
1.2059717430089143272e-05
1.2112875791544568129e-05
1.2160133813475141007e-05
1.2198221617683688056e-05
1.2223965231231723609e-05
1.2236041665898803686e-05
1.2235443365166810711e-05
1.222729882957120906e-05
1.2214707557240244286e-05
1.218922460111686418e-05
1.2130276528259311636e-05
1.2068785320764366422e-05
1.2026307316438586268e-05
1.2001201455204068297e-05
1.1987805081657519415e-05
1.1981056151581180027e-05
1.1995454980709625067e-05
1.2080219523142442741e-05
1.2220368059229793468e-05
1.3146059441368208561e-05
1.3135274195342799247e-05
1.3118647209229925083e-05
1.3082181862317159983e-05
1.3026455089837281646e-05
1.2983095432211923191e-05
1.2953747473387352301e-05
1.2935628102774510785e-05
1.2923399116865907785e-05
1.2913161292197877981e-05
1.2908910981850378835e-05
1.2926755132471616012e-05
1.29700070029073003e-05
1.3010698479445247837e-05
1.3050172418423544964e-05
1.3090576741715693592e-05
1.3134044613623657548e-05
1.3181207469536879119e-05
1.3231967756080192036e-05
1.3285079910244365029e-05
1.3337237187710323816e-05
1.3385720400640984458e-05
1.3427806769856133354e-05
1.3460975438137401031e-05
1.3483255965720747504e-05
1.3494696728531635716e-05
1.3496790343667362341e-05
1.3492114690459326159e-05
1.3484394091098514878e-05
1.3475020608101590541e-05
1.3457584337704517062e-05
1.34174580476427928e-05
1.3373094977231795446e-05
1.3338036258122914698e-05
1.3312419440954471468e-05
1.3294125442948593975e-05
1.3280114198305813795e-05
1.327010747838271027e-05
1.3272719463103858919e-05
1.3311178158523119389e-05
1.3380902262995616949e-05
1.3450268941790314442e-05
1.3519276811731987392e-05
1.3586437771766304736e-05
1.3648368866118021321e-05
1.3701391777979766336e-05
1.3742166450909472367e-05
1.3769376586806145207e-05
1.3783222930910981794e-05
1.3786043251795834991e-05
1.378061897257862137e-05
1.3770649449811624471e-05
1.3759039038756424401e-05
1.3747004204075022823e-05
1.373440340364471819e-05
1.371894522831743429e-05
1.3691490692995748874e-05
1.3635219449230199891e-05
1.3575641152116615554e-05
1.3524339261579585109e-05
1.3483340017237453764e-05
1.3452296349214325731e-05
1.3430145234029231888e-05
1.3414167478135003724e-05
1.3401640730239094409e-05
1.3394121728253037805e-05
1.340121266644938455e-05
1.3447640949160403475e-05
1.3520089184179039993e-05
1.3588032737898586577e-05
1.36499122063021307e-05
1.3704008624421971851e-05
1.3748557981345911212e-05
1.378220641073415491e-05
1.3804542923847444274e-05
1.3816511312147008642e-05
1.3819512798200686289e-05
1.3815828674716883339e-05
1.3807518336177548231e-05
1.3796864774470756669e-05
1.3785788059493717073e-05
1.3774538496614468925e-05
1.3761919175484994233e-05
1.3743969302761128415e-05
1.3712836881967794942e-05
1.3677981267593195038e-05
1.364311903618280654e-05
1.3608452629623778171e-05
1.3572491156572777832e-05
1.3535119410987428779e-05
1.3496849622377407287e-05
1.3458856632906931967e-05
1.3422970178437664557e-05
1.3392025640787875006e-05
1.3367865244361355344e-05
1.3351737246442020975e-05
1.3340855259552350236e-05
1.3333324678931670007e-05
1.3336340949513770271e-05
1.3374422654391062009e-05
1.3511207100524407672e-05
1.3687205490674782249e-05
1.383232111857505009e-05
1.3946380912832261753e-05
1.4031472938856551184e-05
1.4092750573260870209e-05
1.4134489237789918967e-05
1.4160603189287727799e-05
1.4174076802097428988e-05
1.4176912576781484075e-05
1.4172060035471752661e-05
1.4163359701220221821e-05
1.4150487854461685967e-05
1.4123139027013869895e-05
1.4049079158315109681e-05
1.390213999449467177e-05
1.3764919316910217685e-05
1.364982473261095945e-05
1.3560696889183101917e-05
1.3496691533701903572e-05
1.3455833068977175409e-05
1.343196732562055185e-05
1.3418149474348826816e-05
1.3408681327532655578e-05
1.3407618505284154848e-05
1.3436202860691847188e-05
1.3541685164720205278e-05
1.3664773894102804787e-05
1.3763620803310129255e-05
1.3837973784013751674e-05
1.3888813554167101546e-05
1.3919839624315124066e-05
1.3936002320813065241e-05
1.3941821361075130929e-05
1.3941937042541168278e-05
1.3939063853404061967e-05
1.393473776317368712e-05
1.392948448992986616e-05
1.3922893250211890379e-05
1.3913995044819459822e-05
1.3900060652112818969e-05
1.3874185375967634418e-05
1.3813810624481110678e-05
1.3714516169855028345e-05
1.3616024867974290595e-05
1.3522539189580484685e-05
1.3436394925498231474e-05
1.3360236654980757196e-05
1.3295616313961038086e-05
1.324424196176196737e-05
1.3206164378511465633e-05
1.318069431917634051e-05
1.3164648436733127418e-05
1.3153621937133815113e-05
1.3147240376439232344e-05
1.3156650716765580685e-05
1.3216974593418810672e-05
1.3347718841725130683e-05
1.3464380165904909164e-05
1.3559526420906064433e-05
1.3633740672528658414e-05
1.3689268882253336482e-05
1.3730018741113037342e-05
1.3758325381213422348e-05
1.3776895929843622923e-05
1.3787039779083007401e-05
1.3789628180693937903e-05
1.3786090312128167554e-05
1.3777848220153146564e-05
1.3767091544215207042e-05
1.3755028243477102827e-05
1.3740470497950692849e-05
1.3718562952781990669e-05
1.3673076159347926433e-05
1.3572683200071736622e-05
1.3459019420467825559e-05
1.3350497960491608315e-05
1.325031209107510549e-05
1.3162788190537434924e-05
1.3091098958424276832e-05
1.3037983334113467096e-05
1.3002680803563230287e-05
1.2982308061642244633e-05
1.2970748927072811262e-05
1.2963249461457751417e-05
1.2969516379044167999e-05
1.3022741367858474331e-05
1.3157922429109101858e-05
1.3282330948362121732e-05
1.3382282197894026628e-05
1.3458201092554023391e-05
1.3513142881609758124e-05
1.355077189741213568e-05
1.3575241743660509911e-05
1.3589366125413589786e-05
1.3596180853265826309e-05
1.3597203009216589955e-05
1.3593649727178075371e-05
1.3586952137605927575e-05
1.3578026381009989209e-05
1.3568089655316753066e-05
1.3557584827199099887e-05
1.354577485624283527e-05
1.3530347284574887901e-05
1.3503982802696163552e-05
1.344311353798259418e-05
1.3336100985793595934e-05
1.3225605891199917918e-05
1.311723308136432708e-05
1.301547313882290004e-05
1.2925211728870458192e-05
1.2850874534040068276e-05
1.2794817010431313795e-05
1.2757331936675969178e-05
1.2734901298697075167e-05
1.2723032532003339688e-05
1.2715246268390755307e-05
1.2714711892554702335e-05
1.2738175566648444331e-05
1.2833581691447672169e-05
1.2976175762216573105e-05
1.3099443487686557671e-05
1.3201412223653975834e-05
1.3281569622795099821e-05
1.3341893901337472229e-05
1.3384807068495620962e-05
1.3414339833321094534e-05
1.3433540744260973176e-05
1.3445424951275996827e-05
1.3451768108786270656e-05
1.3453822012016493912e-05
1.3452074458092660127e-05
1.344731712172172516e-05
1.3440637304820549948e-05
1.3432733500265528863e-05
1.3421273158145761639e-05
1.3396428695408096009e-05
1.3327459637785204515e-05
1.3170899746474142893e-05
1.301219214720033018e-05
1.2874206211684274822e-05
1.2762189614141788432e-05
1.2678117716286365851e-05
1.2620852287572412135e-05
1.2585902726318246372e-05
1.2566655567416191934e-05
1.2555431742234358185e-05
1.2548400474904146499e-05
1.2555247619687889569e-05
1.2607179543193173683e-05
1.2724958406913163591e-05
1.2834979676747202814e-05
1.29292326601461294e-05
1.3007476125427408674e-05
1.3068671433886824804e-05
6.1050082342286345259e-07
6.9900302694681921623e-07
8.0923702656738530805e-07
9.8816220748741128006e-07
1.1210057015781861458e-06
1.1815555847874408662e-06
1.2395331265163339666e-06
1.3600969855289103262e-06
1.4909113034196188675e-06
1.6079627064561887869e-06
1.7249668945068964676e-06
1.8382985841500611928e-06
1.9451366160823439564e-06
2.0607507094336157049e-06
2.1954713025050161471e-06
2.3331928046847059687e-06
2.4475209690961835655e-06
2.5242969699830300511e-06
2.5771679997971568239e-06
2.6439131857060067014e-06
2.7512114296590982259e-06
2.8836960002571756301e-06
3.0007014688530152772e-06
3.0781084423855149084e-06
3.1225969068329620051e-06
3.1626196343895388872e-06
3.2366003761817357347e-06
3.4096773588077881848e-06
3.6539107995581512688e-06
3.8659596098146375775e-06
4.0052281482616427971e-06
4.068507696324341681e-06
4.084688568329597537e-06
4.0911790387185900179e-06
4.1104432471099850365e-06
4.1939659214434678452e-06
4.4153091726360892613e-06
4.5981998605861334545e-06
4.7003454712804280526e-06
4.7434806572335515637e-06
4.7557964456862516719e-06
4.7634066146495714173e-06
4.784029598407896619e-06
4.8418140253863100342e-06
5.0005499274299210753e-06
5.1944362636569957269e-06
5.342500308498310271e-06
5.4328151829609589964e-06
5.4736256415728150722e-06
5.4874911767571430012e-06
5.5002798922822779593e-06
5.5326260405133254638e-06
5.6226365598115078751e-06
5.787259184160155097e-06
5.9511260911562830457e-06
6.0815567918007349698e-06
6.1611605244241855601e-06
6.1947068722600193185e-06
6.2112964417480116653e-06
6.2476615019995737548e-06
6.3157977048372411253e-06
6.4052949515824159416e-06
6.5083431239173534675e-06
6.6184351438290886876e-06
6.7245259818924329231e-06
6.8161644130684864628e-06
6.889497331694950316e-06
6.9492494443148130243e-06
7.0030859284010536989e-06
7.0572074600604573134e-06
7.1162303201512923923e-06
7.1855536962344426576e-06
7.2687937703561670096e-06
7.3641593510163343709e-06
7.4646287120946352186e-06
7.5629191904898886931e-06
7.6550494723084134549e-06
7.7384217606242747668e-06
7.8087733084673189215e-06
7.860249649634031837e-06
7.8906133498906800574e-06
7.9059965648189055412e-06
7.9207015422387948023e-06
7.952032068254069353e-06
8.0361945592093353896e-06
8.2081234007963901119e-06
8.3779416252914381847e-06
8.5129338758793959694e-06
8.6007986800854996823e-06
8.6475396338001732724e-06
8.6729980457981424325e-06
8.6983954062589592275e-06
8.7383782665998583472e-06
8.7939322671314722614e-06
8.8561525767415442408e-06
8.9120323718513868834e-06
8.9529102720475137476e-06
8.9793791561234865412e-06
9.0011996525035249911e-06
9.0307711861699684709e-06
9.0787330938836329007e-06
9.1495312365489083091e-06
9.2436915356775098971e-06
9.3597943855754233713e-06
9.4931815737030237717e-06
9.6330493680171704903e-06
9.7624181810874558369e-06
9.8661122786899398205e-06
9.9360189686940854966e-06
9.9738730877724193129e-06
9.9881048764088370049e-06
9.9895379144550615938e-06
9.9850949269216869705e-06
9.9739720149318709686e-06
9.962338595758187478e-06
9.9529063790473241389e-06
9.9522586744400922754e-06
9.9873668935976812194e-06
1.01131415745154721e-05
1.0257356446629902846e-05
1.0376135703222795162e-05
1.0475374321188371686e-05
1.0561658911304414065e-05
1.0644642594329276267e-05
1.0734135048790731026e-05
1.0834254521407249479e-05
1.093940366615539263e-05
1.1039533428433843986e-05
1.1122221963722304114e-05
1.1178639612244284425e-05
1.1205567294164643793e-05
1.1210573789211364761e-05
1.1204769040259216848e-05
1.1186301471469744026e-05
1.1141635090299713501e-05
1.110681225553205887e-05
1.1089790547514447806e-05
1.1083744435740154125e-05
1.1094373528772578469e-05
1.1165840127609645476e-05
1.1319331182216258542e-05
1.1434809995770169923e-05
1.1511233075023200042e-05
1.15626987081389272e-05
1.1604693471275450635e-05
1.165165565796542629e-05
1.1712606465569370829e-05
1.1787128368566731715e-05
1.1867795249254516597e-05
1.194350085522162819e-05
1.2002376893210547394e-05
1.2037869911449840764e-05
1.2049193816380080827e-05
1.2044444205669787478e-05
1.203341196532243405e-05
1.2014544985357042956e-05
1.1974505335518270509e-05
1.1938926162254424117e-05
1.1917759803880885081e-05
1.1905919774844133296e-05
1.1897504506456945531e-05
1.1894546531107112102e-05
1.1915352307219857761e-05
1.1991423492014726687e-05
1.2081669821002161193e-05
1.2171862333800985626e-05
1.2263196927262961521e-05
1.2354198637095315189e-05
1.244365564702178962e-05
1.2530882848300153954e-05
1.2615819908812009182e-05
1.2697189057031962542e-05
1.2771322576402694459e-05
1.2832110001583854405e-05
1.2874009682321610866e-05
1.2894057057831631669e-05
1.2894782705066491267e-05
1.2884265893812698765e-05
1.2866782620438449927e-05
1.2828436667616758562e-05
1.2761694469331861035e-05
1.2712787680335835706e-05
1.2684310289730886301e-05
1.2670620997625345905e-05
1.2664241451727549983e-05
1.2677766482674367131e-05
1.2755984439424640823e-05
1.2877509604153291424e-05
1.2976700378895825524e-05
1.3892535643786229734e-05
1.3882978194048594482e-05
1.3870533640465488296e-05
1.385088388729357518e-05
1.3810337563369539865e-05
1.3763642419676486736e-05
1.3729737201603659815e-05
1.3707270649568035302e-05
1.3692347794510412434e-05
1.3680448041754380688e-05
1.3670658718453167498e-05
1.3670916222273661551e-05
1.3701418525998274896e-05
1.3750941455716957543e-05
1.379906490828823845e-05
1.3846974717404007848e-05
1.3895356707381538108e-05
1.3944183245381202454e-05
1.3992061242260565179e-05
1.4038938721838735966e-05
1.4083307128788303847e-05
1.4125383890234181005e-05
1.4164357191045486199e-05
1.4198492973141561558e-05
1.4225616673531148561e-05
1.4242914524547187728e-05
1.4250246018388882372e-05
1.424859437715977633e-05
1.4241917014084262051e-05
1.4233017448324412468e-05
1.4218474351778581812e-05
1.4185358299566393342e-05
1.4146161770044537201e-05
1.4115476818162562748e-05
1.4093040083606883254e-05
1.4076442241776184405e-05
1.4063469525363937444e-05
1.4058875404055979892e-05
1.4080180337132240081e-05
1.4124041932755559172e-05
1.416568478738552084e-05
1.4207294355349503869e-05
1.4250309170638830321e-05
1.4294905826745199986e-05
1.4339833419573252109e-05
1.4382564337336136413e-05
1.4420848785876354159e-05
1.4452285665438401895e-05
1.4475131545441997133e-05
1.4489262151120149027e-05
1.4494594573486088284e-05
1.449265623058541666e-05
1.4484752261716994908e-05
1.4474149765294410061e-05
1.4462960088318479638e-05
1.445001292394167544e-05
1.4427291157559053524e-05