/*--------------------------------*- C++ -*----------------------------------*\
  =========                 |
  \\      /  F ield         | OpenFOAM: The Open Source CFD Toolbox
   \\    /   O peration     | Website:  https://openfoam.org
    \\  /    A nd           | Version:  12
     \\/     M anipulation  |
\*---------------------------------------------------------------------------*/
FoamFile
{
    format      ascii;
    class       volScalarField;
    location    "0.0145";
    object      k_0;
}
// * * * * * * * * * * * * * * * * * * * * * * * * * * * * * * * * * * * * * //

dimensions      [0 2 -2 0 0 0 0];

internalField   nonuniform List<scalar> 
75962
(
3.3699792256108024985e-05
4.8233183388385183555e-05
6.1086028146815557547e-05
8.2022483179714861462e-05
0.00011114338971587337196
0.00013512026648051898717
0.00015451386656335953798
0.00018135815188723557081
0.00021678001563073828902
0.00024939824703864731017
0.00027282044598962636736
0.00029789627022911026972
0.00034052192845226823435
0.00040196271458832526441
0.00046627982840559759059
0.00051959703013444930378
0.00055990223331284997687
0.00058826315272940030935
0.00060967288479080151108
0.00063840941294569070966
0.0006883365836281766072
0.00075973724310778836984
0.00083858948727454573572
0.00090574492478285033477
0.00094994347924584284816
0.00097543856666823644443
0.0010033775940472315028
0.0010626748450435245189
0.0012110207096829056928
0.0013907485341278947189
0.0015269649469488231867
0.0015969864845899670036
0.0016156474318537782184
0.0016160838154695774272
0.0016183036240870940416
0.0016432400495012401513
0.0017454610207161133043
0.0018904478264039038197
0.0019960177099067580482
0.0020614759843656260165
0.002095382391809467483
0.0021146615402592282978
0.0021403370924074527522
0.0021955100729060443923
0.0023220434582751567354
0.002487963765360369419
0.002653463906192831713
0.002788544622516168827
0.0028755155580160009568
0.0029176655097524584019
0.0029362318997022671986
0.0029581461297373901412
0.0030090609137858738246
0.003143938849219098889
0.0033016212548842779895
0.0034287710069559051984
0.0035320847203908966802
0.0036276956016948677664
0.0037228820119925816814
0.0038126324842384842068
0.0038895632991497904041
0.0039549375544695166904
0.004025541051670617973
0.0041247503901366781159
0.0042669450467059692397
0.0044429782371867253266
0.004619990251401572337
0.0047611651155924474346
0.0048512978826252411979
0.0049069834599684029539
0.0049658106689434329539
0.0050622106123383173518
0.0052051547789379324152
0.0053756373423195094943
0.0055414388384297155049
0.005676902111221259796
0.0057709641684984859522
0.0058259479262262568733
0.0058536159044366231977
0.005872629767502119888
0.0059036350964852251505
0.0059721552360968970657
0.006134079260372330214
0.0063562723015727299464
0.0065999799247349402731
0.0068441926482240029311
0.0070613050564235415457
0.0072247493478382798088
0.0073244016406788306495
0.0073767851893677353209
0.0074132684036661410792
0.007463656424044203333
0.0075444727395431497932
0.007657023279985475557
0.0077910219989504670215
0.007926835480261733291
0.0080421472715634118728
0.0081211240390613587126
0.0081655637816807138951
0.0081929982121082770702
0.0082287115939930644687
0.0083010999484867502296
0.0084665592862947225417
0.0087282811629517901425
0.0090496330960822806561
0.0094070143007360228909
0.0097606004271471973055
0.010065989067811654742
0.010292362119974470674
0.010430456760357103077
0.010495503321119014836
0.010514522289156180007
0.010515209913928317761
0.010506786416156656608
0.010480067114432046332
0.01046167512792549846
0.010455919111537741867
0.010457877809856554185
0.010473919523193623779
0.010540585249802404341
0.010715803553459867653
0.010929257389954307941
0.011167891115313494099
0.01143700034161457442
0.011735510621904568854
0.012061587948666446096
0.012404375515026327612
0.012743553807865761612
0.01304652197077017968
0.01327910754374718276
0.013425183935783690375
0.013488162583631179564
0.013499933934728338553
0.013492194976587613617
0.013440838342563522778
0.013316778827644490737
0.013225217671369506045
0.01317949932465245326
0.013164982227470853338
0.013166512215046045214
0.013181232356981828838
0.013246349876679523391
0.013438860696119504443
0.01369281660238315379
0.013964624615142551614
0.014260588295702382108
0.014576846019482385397
0.014899793201089354955
0.015211580211205935273
0.015490708459819941406
0.015711055773797551888
0.015860773865250536035
0.015937037121756498365
0.015961324935092276872
0.015960671953649190058
0.015941475348502442272
0.015869723757075685638
0.015805748347602694565
0.01578239482946173014
0.015782833222479569074
0.015808115398882487124
0.015930499753971195248
0.016324275027729571313
0.016801943324777829369
0.017187256583957855743
0.017484773337045261821
0.017703359798136385217
0.01786124932704796775
0.017984835034852268004
0.018096693294489419462
0.018212572667476480126
0.018343733061220186126
0.018486663819218006333
0.018628110930038535575
0.018747307775031727545
0.018830624198284372228
0.018873734075192674653
0.018885926015048383475
0.018884319501325727564
0.018861582739791080826
0.018758406959655610224
0.018580113156515906669
0.018456595151009658889
0.018394047876965163857
0.018376874592958138827
0.018381644898411056421
0.018431372020446125382
0.018638662101723359188
0.022992009434513051291
0.022939330527136262555
0.022808614095204224337
0.022699042395453280369
0.022634054239396163288
0.02260762118361036091
0.022604420413043033872
0.022611359320421322433
0.02265053533964496088
0.022796756290332901435
0.023013893007115121536
0.023196982941863737715
0.023357253859244087035
0.023507070656295554062
0.023663498743171997724
0.023838909348224846668
0.024038610848550828747
0.024261714746717292362
0.024496423293832947365
0.024727478528421088788
0.024937398130020861642
0.025111473993265489429
0.025243280730417420876
0.025330060246030426663
0.02537985115368805375
0.025400010315422549834
0.025405403623348758041
0.025404001122665342133
0.025391085614185706504
0.025334606702286183166
0.025192643547401055715
0.025062764102406695499
0.024970030085263748149
0.024912396212421167307
0.024885155456377441863
0.024876033936424048199
0.024874937465081618793
0.024883192345137326862
0.024920885614015009235
0.025042149355167235558
0.025281030333148164779
0.025548264323338593096
0.025838408372055608753
0.026140530552822709848
0.0264345076413877271
0.026702200581924139672
0.026926655990019313786
0.027099963921685198132
0.027221557667904114353
0.027297318987353897529
0.027336439612329253845
0.027349988211168775598
0.027350203983186601592
0.027345828766136708737
0.027327166803201682205
0.027260545905091870117
0.027063906220849243828
0.02683295581907670091
0.026650832625148595384
0.026523289600618064205
0.026444789903111887153
0.026406301566085213506
0.026394346580083740544
0.026393545157441328231
0.026402604516799751955
0.026445619051160353802
0.026592053197330180886
0.026861122514021586877
0.027128872242444569685
0.0273893438080513342
0.027636501961504012642
0.027864098330139822068
0.028065073389465768072
0.028235155118870002011
0.0283700753805084388
0.028472215888844337045
0.028543539140067020199
0.028588100567262908491
0.028610600955085264269
0.02861844821380645984
0.028619644456071083316
0.028617605939545785743
0.028606075552007725893
0.028565224146115012621
0.028468810248575258243
0.028366044376781227726
0.028267859898575782573
0.028167199270599688893
0.028063362536737516961
0.027956906121781071456
0.027851740988596558612
0.027755064203861853911
0.027676757279319477018
0.027625643884357391211
0.027604774512879588083
0.027602591112999144002
0.027614107041165583678
0.02767763082577730932
0.027915358945329052376
0.028585158103227301107
0.029334121706022481257
0.029961527244936128622
0.03046329035752196393
0.030844681349930572895
0.031127701862383790055
0.031330605405804068386
0.031470515752896818795
0.031559953279116356728
0.031605943033899769334
0.031620501026536081135
0.031619490671047321972
0.031602759394801165083
0.031527780385157931631
0.031260695410711816788
0.030670979554685610935
0.03011949951936249148
0.029663811486461116179
0.029316942439332832615
0.02907548972389888825
0.028929108743688286554
0.028859037799346183573
0.0288366796026635272
0.028837025448044360798
0.028857565670699435179
0.028954412234859023406
0.029300410718392028847
0.029907306180774671095
0.030444781376796650058
0.030883572109032135511
0.031216899575659505517
0.031451576396183837658
0.031604614397955081706
0.031694018700545230349
0.03174289182000007703
0.031766490858439820621
0.031776837141658784147
0.031781669789212436961
0.031782221428903176252
0.031775317602883067225
0.031746671624981619153
0.031657571944523933694
0.031388994120087589101
0.030973330713408610271
0.030578112186567845548
0.030217260747988278213
0.029900216957224327874
0.029635772875117719072
0.029425169438495150931
0.029273207702023438387
0.029173668798154972492
0.029123976989397355047
0.029107814748969604302
0.029108100323634367168
0.02913184034220482263
0.029242179147952695323
0.029633411437609832179
0.030325394472094913817
0.030938359887657206765
0.031437523764855888897
0.031820071201418602402
0.032092632987983212012
0.032274445502577089884
0.032385649485846934592
0.032446488858793032239
0.032475663937813939453
0.032484780555998987728
0.03248582185315541937
0.032482762031743973863
0.032473027960085242005
0.032449667976672882941
0.032387892485663004327
0.032207166780791815497
0.031819836160772059508
0.031407191360719496909
0.030998838667687659415
0.03061023245995893316
0.03025654125341248335
0.029954796643603207734
0.029717449446937421048
0.02955478536476355278
0.029462539799281338426
0.029428714906880714536
0.029426758943750498665
0.029444792333455652861
0.029538117556369185984
0.029883686266520246427
0.030609036073716747173
0.031267410221408414861
0.031808060697090176361
0.032228097960328348781
0.032539708141395680407
0.032761506240923138344
0.032913319274022932726
0.033013269277447993
0.033077439238175958269
0.033115269342160899568
0.033135395988273183554
0.033143747087249555983
0.033144688671060351659
0.033143589640640840066
0.033139237148241088016
0.033126570388169351844
0.033091090955621557668
0.032989114637760913462
0.032691060869444434067
0.032228590204392754126
0.031760672924087823832
0.031306440648503158775
0.030887484776153589089
0.030527137370064107158
0.03024349721489154319
0.030046267036344654483
0.02993238799135739675
0.029884376341639574959
0.029877729851263811617
0.029888216614057428605
0.029949072607123081169
0.030179366434966478638
0.030821354382765401431
0.03153529491215408681
0.03214989358113515272
0.032659354348288212322
0.033064987910034149277
0.03337297934241220676
0.033598098033970458243
0.033755388036250812134
0.033860878552866999214
0.03392788073982726943
0.033968427565655864853
0.033990082262227168386
0.033999864285850660284
0.034003179291354233837
0.034002361047692497564
0.03399362534898968391
0.033952746027915217675
0.033805314272155079225
0.03332713960520342078
0.032574329402673102285
0.031884954177897974203
0.031292760508663822194
0.030820203509465873143
0.030475820009843480884
0.030255805726618571067
0.03014000202120884972
0.030097925486520044069
0.030093233541408335313
0.03010716809594078669
0.030184602949918856729
0.030473563671488040905
0.031158379706880939136
0.031836091898515807286
0.032420198041017152246
0.032909210586267598209
0.033294628393263664412
3.5602874542556098585e-05
5.0081590706567092805e-05
7.6258697983469877655e-05
0.0001036979472828923794
0.00012086180814760281348
0.00013162370822502380283
0.00015078280933562138296
0.00018796847437684065197
0.00023730661660377336481
0.00028425590515681454064
0.00031641390423862108096
0.00033321093942871609543
0.00035000176194020142864
0.0003869591228881199608
0.00045266475350401718519
0.00052409231411417193849
0.00059189507958394202685
0.00064608739208512179844
0.00067823607899091084734
0.000695323618904191104
0.00071736487155177038142
0.00076956573185825471236
0.00086878837081430526374
0.0009593355209701532639
0.001018949643363388502
0.0010500209089195377578
0.0010764400345552387842
0.0011287868803130274471
0.0012549406668313472634
0.0014200207062900730044
0.0015557433615261228969
0.0016334429601888322305
0.001659479682410456864
0.001663319711097797091
0.0016681411934972504955
0.0016925666925947386709
0.0017950460720405308872
0.0019835793835481720267
0.002121323892420177732
0.002200677566018043041
0.0022375074881186176982
0.00225660196307831502
0.0022830589184279015749
0.002342446416253906108
0.0024767501225613206862
0.0026386671108581333592
0.0027922620326322504167
0.0029144255526895954805
0.0029930237115553550396
0.0030320599404934311071
0.0030487486408265042706
0.0030648325948272655411
0.0030993531500812846434
0.0031971500163174930952
0.0034290921347601139961
0.0036524751194438541922
0.0037913831873577150122
0.0038594957489310015297
0.0039197672435849076691
0.0040116995981226543505
0.004127043748939037901
0.0042399495135038859153
0.0043422757826451089183
0.0044486108452719786907
0.0045706555499757158673
0.004704117285739526505
0.0048288863402766012828
0.0049232746608193420079
0.0049843931858841276916
0.005035555421896372591
0.0051139179907934073296
0.0052478705938891045263
0.0054383142711946852801
0.0056556694366418861636
0.0058577344716082497059
0.006016856904308466765
0.0061302777847106306244
0.0062101220698436874687
0.0062656895894290763616
0.0063016963345597868523
0.006329002753565484557
0.0063712580533484795831
0.0064577091435426454968
0.0066110586383115402948
0.006832134789695526976
0.0070982139595076095689
0.007366591922294811294
0.0075897330633801886671
0.0077373233648409273783
0.0078103187931197071842
0.0078368743787132367357
0.0078563874943364461756
0.0078973041763979873187
0.0080010751673901068376
0.008148869285873057422
0.0082954934459235733779
0.0084276204948675013939
0.0085456781721267409402
0.0086626554525083276914
0.0087931719752367062948
0.0089441038678884660779
0.0091156976730529925418
0.0093052895765796447142
0.0095142534267190145836
0.0097479334531122788926
0.010004609688389400415
0.01026738719856393027
0.01050668138156346694
0.010696859139719093468
0.010824061474498065244
0.01089246399514167199
0.010917873289872585818
0.010922153810511377181
0.010919144620282931341
0.010905861783678678575
0.01089708257146862827
0.010896599509345095483
0.010906745263490927669
0.010964358096406985263
0.011181880910694899645
0.011574356564239577858
0.011932056214211100159
0.012244348484571357383
0.012515221963264364091
0.012757202462409614543
0.01298914483680058303
0.013224988662072530501
0.013464245396577909086
0.013685191135457188197
0.013860668567029372708
0.013972622574515754929
0.014021315793048900328
0.014030492142186389709
0.014023289121430942972
0.013975829436370310055
0.013882161050877436445
0.013825827181428291396
0.013805019447069050154
0.013805955078789164392
0.013822783880662182013
0.013901550064928836978
0.014160184641753493368
0.01450417172531104186
0.014812018267187939888
0.01509008963751790923
0.015344805732808311852
0.01558385290601128903
0.015817633383030414024
0.016049106433180544001
0.016265649347024294796
0.016447596863139464507
0.01657857142033948919
0.016651830476293018324
0.016679484986440895611
0.016682142334885283197
0.016675175438344024686
0.016640779750403088266
0.016595109302118896122
0.016574678814114403302
0.016573798811801019465
0.016587152408478564314
0.016658567668400212775
0.016905987842348025457
0.017251239192257947219
0.017559259093931786633
0.017839300883610000048
0.018097650005278628077
0.018338921389039940235
0.018566748665603698132
0.018783242868528983449
0.018987387381399187941
0.019177878669453439497
0.019347864250889693777
0.019487419987136305605
0.019587813401919808992
0.019646571619682064169
0.019668312403879541217
0.019669867566542046516
0.019660235640685790742
0.019610597137257254619
0.019453610614470515788
0.01928891682278703959
0.019185548301008520378
0.01913823418422603076
0.019128655748127033898
0.019140129098484573444
0.01921861331871030712
0.0195232085586293444
0.020010752322629232064
0.024396372995991077309
0.024392354357366505951
0.024366430031788087474
0.024265558315387115301
0.024091597340551412776
0.023962525308770042665
0.02388590626208972334
0.023853299853271413278
0.023846150119649450055
0.023849734040358061549
0.023877008418238213072
0.023985596141268883397
0.024187032814497730349
0.024377116049661112784
0.024560823961680418315
0.024746640535053817528
0.024943332204837676686
0.025154165674293692961
0.025379652016518931129
0.025615836787404856062
0.02585081570768781381
0.0260741860776989888
0.026275138999355993757
0.026443269653995522817
0.026569944475267930767
0.026654194832825318234
0.02670053882070062834
0.026717744877561230149
0.026720026391530503351
0.026713446621991886881
0.02667464081064071027
0.026548382877799214102
0.02641054252981981168
0.026315754353871317894
0.026263670788728519373
0.026243505313697988029
0.026240164853446615312
0.026249846407574547319
0.026305119422363080345
0.026498380923429650652
0.026813818528072342479
0.027127354998713059525
0.027440056644808412389
0.027746551447128627033
0.028033340670604253025
0.028285375488005432693
0.028488928850536037601
0.028638598914229002751
0.028735509516788038803
0.028789494028927938712
0.028811874821630226867
0.028817238112425789393
0.02881618304071997122
0.028811897080791900455
0.028802133357880340542
0.028776466658388358266
0.028697232273354460197
0.028496259326001454476
0.028283646443835092771
0.028110314430505871364
0.027985844140871810048
0.027908230907483639466
0.027870857128096192257
0.027859284701634137726
0.027859121704927429508
0.027874663904801678938
0.02794521873758949379
0.028175067724231648431
0.028511780109900297653
0.02882970347048603027
0.029123527238106780568
0.029387026817414958757
0.029613241201202504527
0.029796747588149714858
0.029935511641039348057
0.030033130037510308991
0.030094582312507358463
0.030128543833857560075
0.030142720883544478483
0.030145870701958194654
0.030145294953265146937
0.030141511968470872246
0.030129031622752218411
0.030090834559066567677
0.029993282434863526714
0.029878923799573547937
0.029765345671398175248
0.029654622799764142338
0.02954108038830899341
0.029424378275293979618
0.029306302226488719492
0.029190966318256857115
0.029085059048665960063
0.028999681289960391878
0.02894190193875526701
0.028916808266224145602
0.028912476988234670633
0.028920988873901726929
0.028973919667466610517
0.029178588078821569157
0.029817316009339633193
0.030638356237677612237
0.031331068809054382629
0.031890204830130310099
0.032321720483890106768
0.032646558586018406545
0.032882395617844506486
0.033045748023427183593
0.033149424803043558985
0.033202393199943613933
0.033218829110972562801
0.033217786103534638342
0.033198959297803018464
0.033114971468730297621
0.032815633404859996525
0.032181972976859721247
0.031600715785758626275
0.031126481232572965341
0.03077371264870045614
0.030536162350344807359
0.030403217200615714755
0.030346093986421310285
0.030333137550551770439
0.030338571468095688888
0.03038112123585255675
0.030558234158041503586
0.031088912223514293676
0.03170810532754491512
0.032222574604192762149
0.032627625301291887649
0.032924104745262951222
0.033125795810374017436
0.033253077736209391002
0.033325423503827174276
0.033364274540351027132
0.033383499595945914651
0.033392648061940505277
0.033397101587392973021
0.033397594832330672332
0.033391264715781319994
0.033365704985052486997
0.033287414449299591868
0.033047550468905374788
0.032625526580437942681
0.032211617618298410415
0.031825373633105363824
0.031477415827546234572
0.031179377859184113919
0.030937283465622533035
0.030757408791121647329
0.030638217936830889482
0.030575134423078513535
0.030552830547798944666
0.030551116851306452105
0.030569108140822618541
0.030659935702461116325
0.030989505483025297367
0.031654538844302915201
0.032259491636369444501
0.03276487147485649537
0.03316932950261775731
0.033480950274584933557
0.033717780980448620876
0.033891821229074865773
0.034018115651909430763
0.034105166547960585888
0.034158792427728568164
0.034186632787835999348
0.034195289864876361741
0.034194533108721336667
0.034189084761208451968
0.034171876441282396375
0.034117986541876359208
0.0339464403370082074
0.033502870885283343727
0.032995808544002462603
0.032516259661951603388
0.03207920310515022938
0.031704907714412727815
0.031407775655790851066
0.03120035375841302
0.031078746058775530425
0.031029292282216916488
0.031022968897413585876
0.031037004533351973679
0.031117752784800747218
0.031425131431938008175
0.032133254541333006182
0.032796378933906293607
0.033344232056363221073
0.033775525088586041966
0.034103090856788864649
0.034343861259215673065
0.034518002708843739668
0.034639434991198425617
0.034723537038646903885
0.034778119343710729716
0.034809500365859009918
0.034825133923303851213
0.034829745302149189845
0.03482942613936069326
0.034826181233125086401
0.034815739257153199837
0.034785685836675024618
0.03469806074115239225
0.034432117046644526714
0.033930598085976051981
0.033414113562881181396
0.032912040493588604062
0.032447226672327723895
0.032043671171263263253
0.031722175755225907878
0.031492797786265076809
0.031355480980163621951
0.031291672666621056509
0.031278627151342101864
0.031284331993134191496
0.031324796926901543603
0.031483651770717442642
0.032001660798546854858
0.032764068023264189544
0.033439991673033374331
0.034016251615711361189
0.034486801003540186461
0.034858560215909169255
0.035141190428685437075
0.035353468383375628858
0.035509699916010876997
0.035624692395591753269
0.035707295244655976041
0.035764093396005405823
0.035798020261735563619
0.035813945887490601649
0.035818441357610246445
0.035816023266456283036
0.035795012594083054636
0.035703673674490066237
0.0353794515834966114
0.034596889041609200921
0.033813450781762337261
0.03314722225737591621
0.03262179372475973449
0.032243886448903476272
0.032004914063432622628
0.031880187835927213669
0.031835063460267112867
0.03182997574119495604
0.0318451751807991984
0.03192964842110549567
0.032243188318927099023
0.032896940989798680033
0.033516287569241347277
0.034057910050299129712
0.034518572124194887851
0.034891075866773015035
3.6537407692264949944e-05
4.7865943990955252361e-05
6.4359620803484490726e-05
9.6316333448862804633e-05
0.00012444134178798187877
0.00013859285761071098012
0.00015254292214087492117
0.00018376976265200380047
0.00022100113345008355115
0.00025683528691085891161
0.00029539683012457662462
0.00033609966207924816487
0.00037724456515937269214
0.00042400487950569354942
0.00048184736446871913101
0.00054522122899059550453
0.00060066639617489250499
0.00063922274326990206027
0.00066707346877289334756
0.00070351650285103181463
0.00076303428932853183553
0.00083949598538130812322
0.00091111024347012147407
0.00096100313610794315441
0.00099002131887493123423
0.0010160821360169381301
0.0010657151190722332582
0.0011852823348058288532
0.0013636927349989316251
0.0015283597529992842042
0.0016413236091830532646
0.001693616656815202055
0.0017072080521967061481
0.0017136661036568003481
0.0017318378988020275561
0.0018056662394450493335
0.0020049793910079214028
0.0021789203526231880163
0.0022814914305364268968
0.0023282936770817569232
0.0023448601520555879991
0.0023558191744747587412
0.0023780608556979352351
0.0024359927094420707333
0.0025982017248510364676
0.0028050106347442069904
0.0029708380774476190155
0.003077227591421125702
0.0031293004250364710866
0.0031508787498562033577
0.0031709282129360736625
0.0032128425882585894512
0.0033218583235076976426
0.0035225299412231648837
0.0037285338687879166289
0.0038982924780808199741
0.004006669091743828709
0.0040576656884576279422
0.0040881864862310837716
0.0041451599127904021139
0.0042434262780407239202
0.0043689915230412379454
0.0045123828140440479934
0.0046670041783127055174
0.004820376847451636991
0.0049589709340665897447
0.0050754824108243477149
0.0051730787154511039677
0.0052607900521478307559
0.0053484702609536485807
0.0054450607151619659363
0.0055598809134955054848
0.0056982039253961717928
0.0058573340407691611154
0.006027257353617712643
0.0061975910360480895508
0.0063620714295197257349
0.0065146778948588467129
0.0066456995064438527041
0.0067431505719524236289
0.0068024906949331860953
0.0068351000087174245551
0.0068673098714081073912
0.0069305320850697581941
0.0070893002009647463485
0.0074089434715260884395
0.0077319590474565040583
0.0079952436510429981259
0.0081714705101300633139
0.0082695458546272870154
0.0083269759569951015687
0.0083849899868215053977
0.0084732012235407237755
0.0085944324374625929996
0.0087317403608226790146
0.0088585402343882430065
0.0089556319183539626755
0.0090223516290549553298
0.0090774978818841927514
0.0091470386609447500159
0.0092546812390395805092
0.0094119631036561936244
0.0096209325952179083896
0.0098782662370872059004
0.010174027425840956665
0.010487030879877625236
0.010782975980806512595
0.011028440100733734319
0.011201239563215774353
0.011299572131050976409
0.011339987125656194808
0.011349259052969148595
0.011348120796227155124
0.011337412067050576733
0.01133077846188152403
0.01133175509821299741
0.011352470045007259994
0.011453183955805327707
0.011762226011869466105
0.012117642120167807646
0.012417173394129420172
0.012673060577998081569
0.01289964037013384239
0.013119733699390285012
0.013358691007495976724
0.013628679832572007311
0.013917001265056620773
0.0141964894215603505
0.014431520547520705622
0.014595796527252508437
0.014679863506286510572
0.014705437857261525678
0.014704850185714575875
0.014675438967497714607
0.014581416096857044776
0.014514458416078032318
0.014492582299829631989
0.014496949088881298448
0.014544249137039491279
0.014754212034543743789
0.015189438694594612281
0.015531518821490371621
0.015771005686057690959
0.015941289134276077216
0.016082576226478323411
0.016234982585490709966
0.016424947097442386262
0.016652774152012411735
0.016899551678703224333
0.017135738837562457942
0.017328090796192442691
0.017457310257380252716
0.017519136358813386378
0.017534606144272026074
0.017530282017556627489
0.017500688779395930095
0.017406966364644102518
0.017324801067512538011
0.017284688282443304297
0.017273939930747654603
0.017276633047137699567
0.017298251952193640507
0.017390686763724287622
0.0176454066524546066
0.017942883029553529511
0.018241321072697411904
0.018545209243603453381
0.018850706039455499691
0.019154118743348821224
0.019452228512839706692
0.019742991700137865752
0.020020705001485086111
0.020273196789221823583
0.020482229468300694464
0.020632912427653110621
0.020718678135051338957
0.020749224218667757652
0.020749870632024436379
0.020731572830062692386
0.020645934197268556859
0.020466701902990921957
0.020342056220199692534
0.020281383927715484344
0.020267866490590168149
0.020278244198638620266
0.020353213822672414773
0.020637949466924848663
0.021067431739227551746
0.02142929399927454015
0.025866892764862921966
0.025870062708457795125
0.025864004949112253534
0.025830923660508427891
0.025718292444376889688
0.025580785576242635188
0.025489919673733495847
0.025442683422711342284
0.025426374136401076048
0.025424566969997241389
0.025432775069417351554
0.025478599886362023053
0.025635753344434852874
0.025862017324080829178
0.026080637200109668683
0.026296401781893959798
0.026512936179170273204
0.026731613795212116197
0.026948291035218559925
0.027163605979130360513
0.027371717850572508529
0.027573183907110648122
0.02776437212909028257
0.027938174624252926775
0.028085656859757220788
0.02819481526608385788
0.028263721227309322737
0.028294694050626574555
0.028302754815706696045
0.028299917173913578805
0.02827468455672600689
0.028178824794765883199
0.028064637333660342328
0.027990672310430474157
0.027954544205079211866
0.027943947207315293635
0.027946839024869368079
0.027979565922617251339
0.028110992115428303645
0.028328918203864753012
0.028535605106997333213
0.028740989477979501238
0.02895174738467064246
0.029169017070559643406
0.029388073522173499552
0.02959909306344892313
0.02979365389598545924
0.029962666877186551473
0.03009970664525905143
0.03020428719758566638
0.030275360268714541362
0.030317831723850590525
0.030335071774847038872
0.030338650256482274647
0.030335858240115278622
0.030321437217508760698
0.030263052489083230867
0.030072661531558464443
0.029822196720659503028
0.029624892278931631157
0.029487471771854345537
0.02940342383815539723
0.029363317251916907363
0.029350018896565521764
0.029348634352218367499
0.029362055198095919628
0.029427060116022682457
0.029640787120516386838
0.02995973054377870301
0.030269146249353760109
0.03056463380668061891
0.03084060194980253744
0.031087851711320516057
0.03129929088241571733
0.031466502729056274046
0.031591263580235937058
0.031674993335906218017
0.031725435511930417942
0.031748436167405219566
0.031755100607761238551
0.031754523117328521675
0.031750472845659939714
0.031738558599444445518
0.031704137440459592701
0.031601814455856268304
0.031440717301070439382
0.031279119402498875568
0.031118403692105729708
0.030961701677882029482
0.03081350008205082508
0.030679912056128647024
0.030567051475560047535
0.030482206751678484619
0.030429379959010908335
0.030407833730596214167
0.030404984742319608043
0.030417551159438407926
0.03048907181202863137
0.030757671058975442901
0.031487566111944809144
0.032283119202954735361
0.032961772631007649204
0.0335185197526454981
0.033963941804980982142
0.034316276036560192098
0.034598823510955258043
0.034822642779439604011
0.034992850856318688524
0.035108120784482138577
0.035169444901536991988
0.035187186698073739943
0.035184577162268797224
0.035153826399373214184
0.035019350435693159806
0.034550425889705270455
0.033818857892665497855
0.033209090626332406215
0.032749847141547883123
0.03243713887436893567
0.032257596219085214739
0.032178007819635000286
0.032158254198827340709
0.0321635471690055047
0.032210035555185236034
0.032406214833046252666
0.032936496961991836019
0.033487977709542808558
0.033945779734883517464
0.034308035672209066802
0.034579618185091996752
0.034769702302613891831
0.034894390807375927355
0.034971841455659874454
0.03501608878723179441
0.035041338052285181393
0.035055348595466530315
0.035063023329998319055