/*--------------------------------*- C++ -*----------------------------------*\
  =========                 |
  \\      /  F ield         | OpenFOAM: The Open Source CFD Toolbox
   \\    /   O peration     | Website:  https://openfoam.org
    \\  /    A nd           | Version:  12
     \\/     M anipulation  |
\*---------------------------------------------------------------------------*/
FoamFile
{
    format      ascii;
    class       volScalarField;
    location    "0.0145";
    object      nut;
}
// * * * * * * * * * * * * * * * * * * * * * * * * * * * * * * * * * * * * * //

dimensions      [0 2 -1 0 0 0 0];

internalField   nonuniform List<scalar> 
75962
(
4.8107042926222226302e-07
5.7485953181568673933e-07
6.464548945164378276e-07
7.4849279296264470334e-07
8.7073450702481923629e-07
9.595109061593955581e-07
1.0253504212717885189e-06
1.1100150857714544683e-06
1.212745456014788968e-06
1.299956619344626491e-06
1.358720091862226752e-06
1.4187237643967757326e-06
1.5156537555624328535e-06
1.6455679037926245277e-06
1.7712249510045033178e-06
1.8685436072345676528e-06
1.9383426232514280359e-06
1.9854813453603200572e-06
2.0198864077497353907e-06
2.0654284330173538719e-06
2.1430746898605658351e-06
2.2498803661354740041e-06
2.3621558515403350836e-06
2.4533042139961414652e-06
2.5108068321296125225e-06
2.5425541718560766148e-06
2.5768560079047320128e-06
2.6498495870632962428e-06
2.8264706605079561715e-06
3.0269997183666505159e-06
3.1698103341866573952e-06
3.2396496466931085995e-06
3.2563977886731848206e-06
3.2546078957103325089e-06
3.2545487015567669148e-06
3.2770808007961035597e-06
3.3747900483448510101e-06
3.5098275935655519148e-06
3.6041340541856755603e-06
3.6603268353206633418e-06
3.687814921041004332e-06
3.7021810563869155389e-06
3.7219511038812042451e-06
3.7668574623967323926e-06
3.8710000049496851764e-06
4.0041296264376136649e-06
4.1323647905753234038e-06
4.2334198248414237986e-06
4.2960622025240916209e-06
4.324507746931508171e-06
4.3352538815532409608e-06
4.3483487732388897008e-06
4.3824471104934642059e-06
4.4762784615431466763e-06
4.5840386094995209997e-06
4.6683057641929066691e-06
4.7348687538977759606e-06
4.7952125241856988048e-06
4.8543587213182685326e-06
4.9091313668087773378e-06
4.9549810884307069357e-06
4.9929723448036021145e-06
5.0338041666199333108e-06
5.0918474091579128042e-06
5.1752074093917443755e-06
5.2771920324493187454e-06
5.3775936822941683316e-06
5.455434043897448596e-06
5.5030966453068752621e-06
5.530788208111058778e-06
5.5599407962237065738e-06
5.6096589066777674502e-06
5.6842778390706456365e-06
5.7725854595030489386e-06
5.8569115726074816918e-06
5.9240373331880380917e-06
5.9688523415492267019e-06
5.9931118313786979358e-06
6.0031734164228596969e-06
6.0087223948927925092e-06
6.0203301311978930644e-06
6.0508483075361334759e-06
6.1278979914652873063e-06
6.23353477137422481e-06
6.3475038826026784487e-06
6.4594170115495265182e-06
6.5565819830814562054e-06
6.6275222747856694141e-06
6.6685381913514313478e-06
6.6877545935119861854e-06
6.6996183862585438656e-06
6.7176393978531429553e-06
6.7491686221653073751e-06
6.7945668607801433761e-06
6.8489908499148338417e-06
6.9036456572718079861e-06
6.9488844512997498224e-06
6.9781155501497664601e-06
6.9923548467357438937e-06
6.9992309984464658206e-06
7.0095645434487186725e-06
7.035358876004417191e-06
7.1000223209210300276e-06
7.2038264550531033527e-06
7.3300840430232224183e-06
7.4682212700528482867e-06
7.6020610197817933818e-06
7.7148217135908720907e-06
7.7957946362199155783e-06
7.84257804408720423e-06
7.8616112096785315612e-06
7.8633154853042532933e-06
7.8581309200285243886e-06
7.8495537904005530582e-06
7.8341328411981448311e-06
7.8217929655590637798e-06
7.814198783089852413e-06
7.8095024423943519722e-06
7.8100351466753681562e-06
7.8292904302402981207e-06
7.8884744783510264476e-06
7.9611050919313582959e-06
8.0419210065438538084e-06
8.1325489924089512233e-06
8.2322493536773124487e-06
8.3400239805439517905e-06
8.4518348315910697021e-06
8.5606883631935617188e-06
8.6559019284242303153e-06
8.7267463534504975767e-06
8.7686280267829066397e-06
8.7831625548693407661e-06
8.7809484688601383717e-06
8.77237690795405921e-06
8.7496936998095555161e-06
8.703197358356556723e-06
8.6671256303988928064e-06
8.6460636873580876176e-06
8.6352715525945123853e-06
8.6297762954073203905e-06
8.6285887457772391279e-06
8.643768079182526364e-06
8.7001298752330416222e-06
8.775837160892257751e-06
8.8563250137643331132e-06
8.9434342801064886061e-06
9.0357596705200108716e-06
9.1289608658978727007e-06
9.2176042318902776335e-06
9.2953941920370814904e-06
9.3548613273438775906e-06
9.3929001588569527997e-06
9.4089987035563779253e-06
9.4096718612953300864e-06
9.4029555323548183541e-06
9.3908104421239500586e-06
9.3631991007834335881e-06
9.3377677457821917035e-06
9.3243475631235360295e-06
9.3179861048047109154e-06
9.3189113366792758291e-06
9.348216876265748478e-06
9.4561380375967870118e-06
9.5869433328972218926e-06
9.6896369617269559457e-06
9.766463136626493208e-06
9.8205816747351278847e-06
9.8574836169979402614e-06
9.8846863278373924911e-06
9.9084979189148332198e-06
9.9332551864941345674e-06
9.9620159435991398594e-06
9.993795801124170209e-06
1.0024998622632897116e-05
1.0050069045885908343e-05
1.0065425564226962687e-05
1.0069983666395207762e-05
1.0066264627735666947e-05
1.0058857306363492627e-05
1.0045867855626341688e-05
1.0011546327701246516e-05
9.9569241306164836926e-06
9.9168223684030160564e-06
9.8930714375124251053e-06
9.8815479526545206237e-06
9.8759424566964461848e-06
9.8823221654313185574e-06
9.9305237084431685553e-06
1.0735124463191458505e-05
1.0715443886085587695e-05
1.0677488422490573932e-05
1.0644360650198599031e-05
1.0621686030295488952e-05
1.0608082510113657845e-05
1.0599961589280804602e-05
1.0594221245822376689e-05
1.0595977965886643882e-05
1.0622590052044895783e-05
1.0665663160351120136e-05
1.070059640592666174e-05
1.0730058168865493881e-05
1.0756942757400527437e-05
1.0785168184902637573e-05
1.0817529771621392558e-05
1.085517760181310527e-05
1.0897843983578448188e-05
1.0942822387677587893e-05
1.0986688090966406975e-05
1.1025593406491725448e-05
1.1056366698652853012e-05
1.1077693062617681278e-05
1.1089054682261065708e-05
1.1092274612470019745e-05
1.1088995758743738245e-05
1.1082480866701724476e-05
1.1074483190666178521e-05
1.1064000494627767207e-05
1.1044093877274743163e-05
1.1005518282066968072e-05
1.0969458444797331798e-05
1.0941514408304593833e-05
1.0921263324459209903e-05
1.0907686745095495625e-05
1.0898096172301206594e-05
1.0890275378085059884e-05
1.0884491931764786249e-05
1.0885109327567178166e-05
1.0903838251091629117e-05
1.0948062472470172397e-05
1.0998108674450478075e-05
1.1052690342371321436e-05
1.1109404122195246404e-05
1.1163961912375520278e-05
1.1212593495471279633e-05
1.1251853513850158537e-05
1.128022365594442729e-05
1.129770623326442199e-05
1.1305609474005160202e-05
1.130588948297107944e-05
1.1300861922926122344e-05
1.1293066709568238586e-05
1.128432739293390544e-05
1.1272661298485218254e-05
1.1251170294021408736e-05
1.1202864050174739255e-05
1.1147179152365631458e-05
1.1101523388770504432e-05
1.1067189998185827203e-05
1.1043086160612663983e-05
1.1027352308792141695e-05
1.101717944099212642e-05
1.1009352442031718059e-05
1.1003572964051662824e-05
1.1004822347396863664e-05
1.1027417816184683584e-05
1.107534151420877679e-05
1.1122682419928674326e-05
1.1168204114675388031e-05
1.1210711425458639884e-05
1.1248989632697248593e-05
1.1281679065626640579e-05
1.1307993131624928786e-05
1.1327146071469187095e-05
1.1339673931985398765e-05
1.1346014248977531391e-05
1.1347007279951603178e-05
1.1343607441809105675e-05
1.1337295609268159958e-05
1.1329664725357779909e-05
1.1321400480317792976e-05
1.1311279160153535966e-05
1.1295402701655344991e-05
1.1268534263154490413e-05
1.1240362256200677642e-05
1.121310119978548929e-05
1.1185351523483900711e-05
1.1156968489135381711e-05
1.1128057786910874023e-05
1.1099392717486981826e-05
1.107240588273722531e-05
1.104907362641555908e-05
1.1031169082009572972e-05
1.1019316670338655855e-05
1.1011216546083373678e-05
1.1005839770990544677e-05
1.1010745370740219901e-05
1.1049948287411071236e-05
1.1173568706736361139e-05
1.1311282174517732314e-05
1.1423808684210833651e-05
1.1511204886528384386e-05
1.1575114289946256073e-05
1.162011881522597917e-05
1.1649910085624050779e-05
1.1667844084244471232e-05
1.167634569838889896e-05
1.1676772781657992134e-05
1.1671372905877481284e-05
1.1663089116979361614e-05
1.1651933274088734733e-05
1.163011676234693312e-05
1.1573030587344696756e-05
1.1455539232250973176e-05
1.1344117498230585339e-05
1.1250063518734884182e-05
1.1176225970833503933e-05
1.1122281386732595657e-05
1.1086460734169183544e-05
1.1065276543201073655e-05
1.1053275568187229016e-05
1.104565707954948279e-05
1.1041879156526377074e-05
1.1052578482277274901e-05
1.1110313406213359009e-05
1.1216985462258383504e-05
1.1309567570403898334e-05
1.1382977000057276058e-05
1.1436396886750295249e-05
1.1471416986442321001e-05
1.1491369041088646689e-05
1.1499659551328607815e-05
1.150055276663590027e-05
1.1496850404850828575e-05
1.1490746326417148972e-05
1.1483650218893181309e-05
1.1475787028285307218e-05
1.1466597076384058736e-05
1.1453513763146946412e-05
1.1429592957346115009e-05
1.1373348108182569947e-05
1.1289972542019552945e-05
1.1209899906297597722e-05
1.1135788274956936946e-05
1.106948152439371612e-05
1.1012723511794154249e-05
1.0965852905565984937e-05
1.0929852690839797876e-05
1.0903624944441889412e-05
1.088672266299070131e-05
1.0876111259411081408e-05
1.0868596155891748804e-05
1.0865423017870120669e-05
1.0878261651944168577e-05
1.0942737251975299134e-05
1.1062062132709083253e-05
1.1165651797630377209e-05
1.124767312461801496e-05
1.1308159100879183642e-05
1.1348703012143543912e-05
1.1372984179723459833e-05
1.1384715255130488381e-05
1.1387541026606464773e-05
1.1384786676659605081e-05
1.1378505203053324867e-05
1.137080240510403066e-05
1.1362386081098590037e-05
1.135280856431916636e-05
1.1340864195098350635e-05
1.1322257546609828093e-05
1.1282984364944565234e-05
1.1207263373222754686e-05
1.1126626658968734901e-05
1.1046371507704288311e-05
1.0969266355426100963e-05
1.0898093722814055192e-05
1.0836025814175930367e-05
1.0785442894733104539e-05
1.0748338198541482688e-05
1.0724030513514508337e-05
1.0710382827028564116e-05
1.0702573861119573707e-05
1.0698382253456264278e-05
1.0707744520713959537e-05
1.0762264563441961202e-05
1.088442949959018788e-05
1.0993355091884588165e-05
1.1080428149409798114e-05
1.1145730695240973178e-05
1.1191815662155973069e-05
1.1222182467872805542e-05
1.1240408844724496384e-05
1.1249693464728733843e-05
1.1252835889869470984e-05
1.1251474449331098123e-05
1.1247093971650493042e-05
1.1240710954784645094e-05
1.1233069783479891857e-05
1.122508621348399565e-05
1.1216559682913242513e-05
1.1206640338364368153e-05
1.1192895016850506356e-05
1.1167984953832583834e-05
1.11099674507523116e-05
1.1023488828551756543e-05
1.0935577833939926537e-05
1.0849541482585934587e-05
1.076917609538859622e-05
1.0698673278163709868e-05
1.0641376721670489289e-05
1.0599166208380783149e-05
1.0571633358864374061e-05
1.0555756590836022456e-05
1.0547226483565377587e-05
1.0541726879235231213e-05
1.054503198620230157e-05
1.0577840024135089152e-05
1.0681949898914515758e-05
1.0797592089522650843e-05
1.0894861804216385165e-05
1.097334605524486232e-05
1.1033730445590697196e-05
1.1077401934102370335e-05
1.1107062345723687184e-05
1.1125360305753629491e-05
1.1135036005874083119e-05
1.1138335870162529144e-05
1.1137268372827430183e-05
1.1133092432403507698e-05
1.1126967580322977123e-05
1.1119785057157351759e-05
1.1111931246852632175e-05
1.1102803368396632668e-05
1.1088479040531322591e-05
1.1056884902779025138e-05
1.0971267088492888826e-05
1.0839153928241022456e-05
1.0716334402292744182e-05
1.0608879974831000062e-05
1.0521038440668943677e-05
1.0454696739991319255e-05
1.0409535239757583368e-05
1.0382283902736355331e-05
1.0367769634309400632e-05
1.0359740401159462013e-05
1.0354911461369096853e-05
1.0360896756576852166e-05
1.0402748697834386202e-05
1.0511438893731055725e-05
1.0617887762508794786e-05
1.0707521680752533983e-05
1.0780595602617681512e-05
1.0836116719437904684e-05
5.0695728189554296567e-07
6.0094417194164141477e-07
7.4094894086106324774e-07
8.6361452937279980001e-07
9.3186282245180785116e-07
9.7175432189223544999e-07
1.0391645134235726508e-06
1.1593305700908391969e-06
1.3017460021637083565e-06
1.4238220345277344747e-06
1.5012980763924432143e-06
1.5396299071804146395e-06
1.5767778539542996202e-06
1.6565950876971873296e-06
1.7904485718379219957e-06
1.9252527408598046137e-06
2.0446358810627303178e-06
2.1347942593092376582e-06
2.1858451878257059412e-06
2.211705780489288729e-06
2.2448569264126004608e-06
2.3232604196821109184e-06
2.4667528537868679942e-06
2.5904216149023366377e-06
2.6679754985128343704e-06
2.706546344158640614e-06
2.7384438001282636277e-06
2.802131726305253654e-06
2.9522173598456466224e-06
3.1382770121302949772e-06
3.2827392171225353772e-06
3.361590876254963768e-06
3.3860634544377714655e-06
3.3876675867719940118e-06
3.3901964715141568009e-06
3.4124110747107248848e-06
3.5113284658768192583e-06
3.6886366091687753995e-06
3.812112924474814668e-06
3.8802294048773254591e-06
3.9099406684753669255e-06
3.9238723257518265633e-06
3.9440062072563147332e-06
3.9920347863198733535e-06
4.1018560481464514427e-06
4.2308957594929909451e-06
4.3493506336223347857e-06
4.4405011904288557064e-06
4.4969619888440624694e-06
4.5231225981473362663e-06
4.5324290383034339816e-06
4.5411939243934275491e-06
4.5634532421007291763e-06
4.6314015094706103423e-06
4.7929342175347507682e-06
4.9433308563755065169e-06
5.0331528557120465157e-06
5.0747394665375623662e-06
5.1106419982736703338e-06
5.1665698868839000934e-06
5.2366420303060221751e-06
5.3041074313698884074e-06
5.3640098184087446975e-06
5.4255068245612264106e-06
5.495591523466042832e-06
5.5713863969645070182e-06
5.6409104785875805734e-06
5.6918791672154411427e-06
5.7231692498815082973e-06
5.7484640756245329734e-06
5.7889198097417144922e-06
5.8600586958060964831e-06
5.961211040130188132e-06
6.0749441604553989563e-06
6.1782952418517600164e-06
6.2574029905384923573e-06
6.3118011852971347405e-06
6.348408765970613778e-06
6.3723479993813241838e-06
6.3862090527340363805e-06
6.3955745679180744253e-06
6.4123796514102678081e-06
6.451154862097585939e-06
6.5226615045212474981e-06
6.6261317137451477172e-06
6.7492029677545148947e-06
6.8708758349951594706e-06
6.9694274983462282532e-06
7.0321155289304499998e-06
7.0604148503551783465e-06
7.0675452909866462721e-06
7.0714118061910495681e-06
7.0848204557817492575e-06
7.1261419118722926753e-06
7.1866497792929312971e-06
7.2459930169510594232e-06
7.2984140014543465066e-06
7.3442537049615991488e-06
7.389195839156103261e-06
7.4394556540913948063e-06
7.4977972260524740293e-06
7.5641055094488703954e-06
7.6370379448133425288e-06
7.7169208168209476012e-06
7.8056528552804859067e-06
7.9022413037248670004e-06
7.9998126397883444124e-06
8.0869445474389260628e-06
8.1542225712558611561e-06
8.1969449951733343719e-06
8.2171600492853799001e-06
8.2210732970099525952e-06
8.217002723398767955e-06
8.2101854092219765072e-06
8.1995078899540997566e-06
8.1905013286069824603e-06
8.1846268073992226152e-06
8.1827221104256598613e-06
8.1984860001015266164e-06
8.2733018248532797092e-06
8.4113817159352271868e-06
8.5345041480222163995e-06
8.6395337852739347804e-06
8.7285683954050024262e-06
8.8064677101469706532e-06
8.8800086927844087097e-06
8.9540401966253990111e-06
9.0284038228586977821e-06
9.0958873011722797384e-06
9.1477166240127629344e-06
9.1782824442230806521e-06
9.1879475590791780869e-06
9.1846175468675066102e-06
9.1759237490932932279e-06
9.1541247974286785107e-06
9.1170405091056771053e-06
9.0921439550325345815e-06
9.0789436253824580086e-06
9.0729331301247616998e-06
9.0721321104814668071e-06
9.0915036754995724077e-06
9.1690549943329076869e-06
9.2733558847575943895e-06
9.364785349988507572e-06
9.4457443639800731637e-06
9.5185326571909049123e-06
9.5857314251254806671e-06
9.6506558714492318626e-06
9.7142744420231389672e-06
9.7728393326496562767e-06
9.8205889331663395113e-06
9.8528447691042867065e-06
9.8678012245311142066e-06
9.8691735607056785073e-06
9.8631139656572190086e-06
9.8542149181360484596e-06
9.8372476441860169611e-06
9.8168933793504749129e-06
9.8040086001623215074e-06
9.7969301436451510439e-06
9.7940412269846232837e-06
9.8081672211401991568e-06
9.8736180159567817614e-06
9.9670386055157378152e-06
1.0048689937466413877e-05
1.0121504827454963664e-05
1.0187479432138460463e-05
1.0248062745554311107e-05
1.0304379635951230599e-05
1.0357098390521500181e-05
1.0406008985084010278e-05
1.0450828001929342732e-05
1.0489774546283392364e-05
1.0520264016323693437e-05
1.0540053538138465232e-05
1.0548573755912834577e-05
1.0547121040622695718e-05
1.0540231038293374565e-05
1.053035567612332011e-05
1.0509828163362396625e-05
1.0460522981378975546e-05
1.0408856054434515646e-05
1.0373656260204650395e-05
1.0353611331198388652e-05
1.034380531421765737e-05
1.0339687324200691379e-05
1.0353524049877229195e-05
1.0427627191953736199e-05
1.0549724312225415026e-05
1.1353531672902645238e-05
1.1344728381110890509e-05
1.133086591092882797e-05
1.1299652226513040782e-05
1.1251242634706939014e-05
1.1213218319409179298e-05
1.1187456041981013366e-05
1.117202608064151447e-05
1.1162587677839400067e-05
1.1155670106661948158e-05
1.1154250818744465069e-05
1.1171678694409859886e-05
1.1210681979261026797e-05
1.1246838117295531207e-05
1.1281299000458362206e-05
1.131602419823368078e-05
1.1353006523552124478e-05
1.1392956870779269093e-05
1.1435949578404277092e-05
1.1481056743612413679e-05
1.1525593923165577476e-05
1.1567261175521283205e-05
1.1603715056454755842e-05
1.1632736724599894402e-05
1.1652514511236144787e-05
1.1662913572526457516e-05
1.1664978347055206676e-05
1.1660655531544033759e-05
1.1653062559242412038e-05
1.1643549619537317986e-05
1.1627069910738970534e-05
1.1591558597035082155e-05
1.1553365818607993143e-05
1.1524569484826829098e-05
1.1505130563199694139e-05
1.1492701144360742025e-05
1.1483974097907309535e-05
1.1478087320076077124e-05
1.14820947308195051e-05
1.1515986701580210243e-05
1.1576264165327535729e-05
1.163566822572913578e-05
1.1694420926369304773e-05
1.1751401552170691924e-05
1.180380461130887169e-05
1.1848557633033203154e-05
1.1882911748207610346e-05
1.1905869961606321001e-05
1.1917770780054331176e-05
1.1920723214327848965e-05
1.1917108562402297598e-05
1.1909960517984257504e-05
1.1901480818383507697e-05
1.1892335759168913889e-05
1.1882066038118366041e-05
1.1868542400481544606e-05
1.1844047654503959917e-05
1.1794401698958019797e-05
1.1742128970732402751e-05
1.1697927516046833005e-05
1.166385475942803893e-05
1.1639544211244670207e-05
1.1623640115431211679e-05
1.1613135981396011416e-05
1.1605026201423656579e-05
1.1600162705574505224e-05
1.1606664899591328122e-05
1.1645994599539767896e-05
1.1707242976958950087e-05
1.1764184713380744572e-05
1.1815804122612725782e-05
1.1860935238373098897e-05
1.1898278088469881573e-05
1.192684889059816619e-05
1.1946335395086790429e-05
1.1957531428858053212e-05
1.1961481509024815846e-05
1.1959944034572577231e-05
1.1954468061510583555e-05
1.194679988579355893e-05
1.1938394154193424725e-05
1.1929361874815434442e-05
1.1918624122074493747e-05
1.1902838270016799952e-05
1.1875330202196374968e-05
1.1844436816538849518e-05
1.1813694104068855168e-05
1.1783515731410204843e-05
1.1752776288925684094e-05
1.1721401077675931983e-05
1.1689740744154995659e-05
1.1658611829482328607e-05
1.1629349079624576294e-05
1.1604179592097741973e-05
1.1584530778599542045e-05
1.1571436035060452988e-05
1.1562518795010483236e-05
1.1556168323714115657e-05
1.1558621859632044505e-05
1.159105093896685548e-05
1.1708596970784095677e-05
1.1860573022333362699e-05
1.1985724398408379213e-05
1.2083947886179249008e-05
1.2157108492225286972e-05
1.2209667627484037565e-05
1.2245266954144513641e-05
1.2267191357628056227e-05
1.2277946006417789711e-05
1.2279264238410641131e-05
1.2273802045859590022e-05
1.2265097068042585908e-05
1.2253139035315229117e-05
1.2229239923404659646e-05
1.2165750044760352782e-05
1.2039472006583205033e-05
1.1921878727361567621e-05
1.1823758979051145272e-05
1.1748286725301892544e-05
1.1694619686248269023e-05
1.1660942738891275436e-05
1.1641835874606392133e-05
1.1631243236763841022e-05
1.1624194388573703032e-05
1.1624198584884507771e-05
1.1649700621779532106e-05
1.1741906604964251294e-05
1.1850138266592258939e-05
1.1937708853376901601e-05
1.2004276850204633926e-05
1.2050418981831386548e-05
1.2078955865797316542e-05
1.2093789184893950829e-05
1.2098563187227600357e-05
1.2097224794698226125e-05
1.2092317619440545119e-05
1.208558554351748687e-05
1.2078009887534937088e-05
1.2069724198505691096e-05
1.2060222899270548583e-05
1.2047274647554975015e-05
1.2024867539426471708e-05
1.1973391951403025607e-05
1.1888486635132176618e-05
1.180461933249162878e-05
1.1725459268144263961e-05
1.1653051187811913622e-05
1.1589655081893341274e-05
1.1536503976612962614e-05
1.1494870616184211005e-05
1.1464548733279501976e-05
1.1444731446076375077e-05
1.1432571877277012781e-05
1.1424293141280708876e-05
1.1419677032436061689e-05
1.1428551321291215078e-05
1.1481407958724170981e-05
1.159582922098993134e-05
1.1698074955481576939e-05
1.178127126993355994e-05
1.1845632405084492652e-05
1.1892967360171041011e-05
1.1926740230676756579e-05
1.1949239908581738216e-05
1.1963224202750356412e-05
1.1970253579177132206e-05
1.1971386310637600615e-05
1.1967982358773229456e-05
1.1961207690434567374e-05
1.1952777805825235397e-05
1.1943532835353049974e-05
1.1932249683121399085e-05
1.1914615650831026614e-05
1.1876571220257582008e-05
1.1790774386114749128e-05
1.169305801043677238e-05
1.1599686425640491876e-05
1.1513416770162892286e-05
1.1438033421947993781e-05
1.1376318068942051974e-05
1.1330722970272797011e-05
1.1300681904376379586e-05
1.1283784299537162222e-05
1.1274774429108766146e-05
1.1269463070271216909e-05
1.1276154038968670329e-05
1.1323432502361942506e-05
1.1442154002425269953e-05
1.1551737434869301368e-05
1.1639866893507148492e-05
1.1706891319207839066e-05
1.1755458643313117107e-05
1.178877419316781881e-05
1.181048122313584546e-05
1.1823069907751657603e-05
1.1829230147645424233e-05
1.1830331871640207129e-05
1.1827471358768011886e-05
1.18219282217208327e-05
1.1814511505174512336e-05
1.1806257998730655958e-05
1.179751615211042118e-05
1.1787567157469396641e-05
1.1774327081942787855e-05
1.1751417016512867168e-05
1.1698459842070834517e-05
1.1604976341946308916e-05
1.1508325567313434898e-05
1.141358918701639785e-05
1.1324794236778847037e-05
1.124626580187788881e-05
1.1181848022242929215e-05
1.1133513579742012324e-05
1.1101409691875557446e-05
1.1082337570702546371e-05
1.1072296796537731755e-05
1.1065598029744352153e-05
1.106499729303747715e-05
1.1085101603058482501e-05
1.1167671324223949988e-05
1.1292118903390788306e-05
1.14002045764133938e-05
1.1490157100812642917e-05
1.1561443958295305722e-05
1.1615626714441982994e-05
1.1654608076065796934e-05
1.1681702509162960666e-05
1.1699401280890663342e-05
1.1710223523724989068e-05
1.1715673796418212075e-05
1.1716864590964076894e-05
1.1714296288184623427e-05
1.1708776672661700975e-05
1.1701386366060729073e-05
1.169287273652111382e-05
1.1681361896923699099e-05
1.1658475916239566055e-05
1.1597780664611347196e-05
1.1461162865009817883e-05
1.1322678331803146781e-05
1.1202674608474321211e-05
1.1105671400606167106e-05
1.10333422289489854e-05
1.0984612089754022753e-05
1.0955469679486107328e-05
1.0940046268275794764e-05
1.0931551857592049597e-05
1.0926533797343092395e-05
1.0933284689029861131e-05
1.0978780097080295268e-05
1.1081716231558619325e-05
1.1177865329017606499e-05
1.126009049972032649e-05
1.132821136734256433e-05
1.1381355393510417254e-05
5.2752323165208251334e-07
6.0286045582597168071e-07
6.9844810821998989143e-07
8.5384919766129454161e-07
9.7003074123109859239e-07
1.0230596094724357116e-06
1.0724798691622746053e-06
1.1761932924471068471e-06
1.288994006279889891e-06
1.3886093762876700221e-06
1.4881858873966896129e-06
1.5863306911015431663e-06
1.6794431706526760167e-06
1.7792088593510194517e-06
1.8953637756698292956e-06
2.0148196416614329472e-06
2.1133909444792297847e-06
2.1787064397038980959e-06
2.2241277815137448539e-06
2.2824225026354619537e-06
2.3752678345489480154e-06
2.4896848939511580771e-06
2.5919903512407049134e-06
2.6602681589439022552e-06
2.6983063953931288212e-06
2.7316504095058332865e-06
2.7954800035147090465e-06
2.94574692961402509e-06
3.1574904063653231691e-06
3.3405484332363000293e-06
3.4596243371397866562e-06
3.5120405254465036174e-06
3.5237339920290963135e-06
3.5279441078093481802e-06
3.544059552664362565e-06
3.6159530458354023488e-06
3.8074193860619041117e-06
3.9666680735442214024e-06
4.0563500527392093648e-06
4.0950346192422023767e-06
4.1067750865418095482e-06
4.1134823002126453357e-06
4.1299186196761837934e-06
4.1768317495001816889e-06
4.3103438558381429102e-06
4.4755999213554370535e-06
4.6029701397194486206e-06
4.6815794841509496401e-06
4.7178557563984190845e-06
4.7308362940668421549e-06
4.7425329842665757955e-06
4.7703692064562885935e-06
4.8469954032247990292e-06
4.9877093350590409449e-06
5.1279759430245389128e-06
5.239899517236029388e-06
5.3086930139794051946e-06
5.3387573138513181694e-06
5.3550768827927326077e-06
5.3884398278539647433e-06
5.4480633891740572772e-06
5.5241840753670442808e-06
5.6101730316651463721e-06
5.7015168781007986021e-06
5.7904555719619818415e-06
5.8690911070181183388e-06
5.9335690355935641015e-06
5.9862098566172893758e-06
6.0325582520592357935e-06
6.0783927466430071195e-06
6.1287536345135880828e-06
6.1886936273651656432e-06
6.2608047547440163097e-06
6.3431829429357095191e-06
6.4300604998311845681e-06
6.5157722810604502809e-06
6.597109249884380218e-06
6.6711608439848953049e-06
6.7332809814272043662e-06
6.7778205928504861775e-06
6.8029072023425411718e-06
6.8144827161540644109e-06
6.8257509660951321191e-06
6.8522543846571901387e-06
6.9252002789205322679e-06
7.0745761147735549134e-06
7.22219486080855696e-06
7.3391637784913177239e-06
7.414600566102512013e-06
7.4538910034374641247e-06
7.4745745651840648493e-06
7.4953365187038383844e-06
7.5293743544003613463e-06
7.5777384857631580986e-06
7.6327204044957426565e-06
7.6826315829539762974e-06
7.7192976477576764546e-06
7.7426451068176435828e-06
7.7608694379986574365e-06
7.785087587415909463e-06
7.8252618098743769885e-06
7.8859286161303496909e-06
7.9673861319051113799e-06
8.0675638034567334438e-06
8.1817183151376822404e-06
8.3008590580214891612e-06
8.4113916912117964408e-06
8.5007908024564011307e-06
8.5612892031187790015e-06
8.5928977501371947947e-06
8.6023260178946722314e-06
8.5998946791097452894e-06
8.5935128925112772821e-06
8.583523986933119912e-06
8.5750524313593454596e-06
8.5694628496040743432e-06
8.5712756893832110511e-06
8.6030225952598311231e-06
8.7119664635732216903e-06
8.8365618395436320757e-06
8.9389773690919190112e-06
9.0244019631287828597e-06
9.0984274293026536296e-06
9.1693447777144804835e-06
9.2460199129194350903e-06
9.3324779916338342295e-06
9.4241319087621045825e-06
9.5117167708957504489e-06
9.5835365868843559349e-06
9.6313211120986758887e-06
9.6523914503727065828e-06
9.6541403266133860961e-06
9.647268823113189893e-06
9.6310084974858788516e-06
9.5935003314898359373e-06
9.5647289131713905978e-06
9.5508273371194931159e-06
9.5456001132638639098e-06
9.5544196748083044395e-06
9.6161045831873394774e-06
9.7501282008602532846e-06
9.8526138672927709273e-06
9.9214988004164629033e-06
9.9680411920434930546e-06
1.0005161857564684214e-05
1.0045436607681123664e-05
1.0096967300831701252e-05
1.0159658581656757901e-05
1.022755416434585656e-05
1.0291669701612897968e-05
1.0342164914281636175e-05
1.0373538696103438446e-05
1.0384751370989902489e-05
1.0382156706126226294e-05
1.0373678657467895353e-05
1.0357763826340230293e-05
1.0322867506298193246e-05
1.0291262848821396603e-05
1.0272160057713916573e-05
1.0261817484331344096e-05
1.0255488953202334523e-05
1.0254744422003431159e-05
1.0274822284447614792e-05
1.0342431786544726221e-05
1.0422021802572925051e-05
1.0501039679204420777e-05
1.0580797916669974309e-05
1.0660190907948857494e-05
1.07381871039050228e-05
1.0813920161038799718e-05
1.0886881473341791272e-05
1.0955582445702851353e-05
1.1016824104488974655e-05
1.1065841922512301013e-05
1.1098838769729078385e-05
1.1114244734258744949e-05
1.1114777539630631088e-05
1.1107260005982382055e-05
1.1094693197843799443e-05
1.1064189803541220436e-05
1.1008405779105160226e-05
1.096713506646847903e-05
1.0943099334325794082e-05
1.0931822861199405017e-05
1.0926999047786945473e-05
1.0939442201868389097e-05
1.1007721459547187198e-05
1.1113986664796458864e-05
1.1201322637709185608e-05
1.1994695410353144749e-05
1.198712268067339212e-05
1.197741562393666376e-05
1.1961490379544831595e-05
1.1927184483756029908e-05
1.1886957465195404615e-05
1.1857540679074522218e-05
1.183828890448032803e-05
1.1826259685407187309e-05
1.1817624613392992339e-05
1.1811307331932105881e-05
1.1813659422325726144e-05
1.1841652100134936526e-05
1.1885532659603484669e-05
1.1927377114308465816e-05
1.196829704220260552e-05
1.2009128464005663106e-05
1.2050184012981381132e-05
1.2090528933443650802e-05
1.2130313235642126759e-05
1.2168245077888007911e-05
1.2204471064879466539e-05
1.2238217930473260621e-05
1.2267960616255778932e-05
1.229179231751986284e-05
1.2307147342547846802e-05
1.2313662561944474323e-05
1.2311882932099682376e-05
1.2305099049177612198e-05
1.229594600322979029e-05
1.2281972081782129201e-05
1.2252708035363421229e-05
1.2219339275277674666e-05
1.2194718893008441669e-05
1.2178354289518061271e-05
1.2167570566443193405e-05
1.2159734052563213471e-05
1.2158338183446508587e-05
1.2178242020315102286e-05
1.2216860613263799131e-05
1.2252840994196648094e-05
1.2288318505278563136e-05
1.2324722648012214978e-05
1.2362286530868228513e-05
1.2400003879390987931e-05
1.2435812606543417163e-05
1.2467976163737073595e-05
1.2494642558042597487e-05
1.2514529192686933777e-05
1.2527590818072309155e-05
1.2533654743881201201e-05
1.2533768657291787901e-05
1.2528648064689944404e-05
1.2520692355536948312e-05
1.251142289430726079e-05
1.2499775461751125926e-05
1.2479134718297332736e-05