/*--------------------------------*- C++ -*----------------------------------*\
  =========                 |
  \\      /  F ield         | OpenFOAM: The Open Source CFD Toolbox
   \\    /   O peration     | Website:  https://openfoam.org
    \\  /    A nd           | Version:  12
     \\/     M anipulation  |
\*---------------------------------------------------------------------------*/
FoamFile
{
    format      ascii;
    class       volScalarField;
    location    "0.0145";
    object      p;
}
// * * * * * * * * * * * * * * * * * * * * * * * * * * * * * * * * * * * * * //

dimensions      [1 -1 -2 0 0 0 0];

internalField   nonuniform List<scalar> 
75962
(
99644.406491663990892
99505.783398890067474
99741.605301184215932
99733.748763122886885
99851.614738680247683
99938.418364712328184
99907.799424914672272
99879.914380309128319
99845.340207943358109
99807.566827246613684
99746.459925554227084
99697.184283032314852
99765.896659464429831
99900.253299450007034
99923.298098620114615
99815.394676321695442
99716.881794877263019
99705.367642645956948
99751.050401403961587
99824.832887979398947
99903.624646992408088
99914.865463864960475
99840.77613575210853
99760.407575004719547
99749.545488143310649
99756.728508605287061
99735.852050593297463
99720.895004834150313
99731.113792459960678
99751.072755888118991
99787.728576531619183
99842.809708509012125
99881.931357451801887
99872.004261095105903
99843.873840496307821
99842.022042387237889
99866.660387200856348
99894.544042387176887
99909.900757545983652
99916.449686936757644
99917.951197572489036
99930.239262122297077
99960.528851675859187
100000.98477517247375
100036.71788025514979
100048.98984496871708
100029.92889812773501
99997.904071864089929
99992.427934236475267
100031.29444814978342
100086.47330359123589
100120.46885535160254
100127.74177408976539
100122.93462135939626
100116.29611998589826
100115.12867116708367
100116.17029703546723
100099.68156394774269
100055.86283235299925
100000.27207107916183
99966.294560258174897
99977.490417342429282
100027.04616622116009
100077.7457772007474
100094.83007170243945
100079.37523361730564
100065.01350650630775
100076.31317069008946
100106.44080875509826
100127.02837659003853
100122.12996969444794
100103.10791067263926
100093.27583700070682
100102.49914764461573
100111.01374421974469
100091.07463972817641
100036.84419739080477
99971.88957121920248
99925.586775859206682
99910.882748981443001
99921.285982729139505
99946.262776469055098
99972.858666949046892
99985.943957170209615
99976.983192531231907
99954.015561445936328
99940.007912550543551
99946.625251872043009
99961.731713212371687
99965.571748981295968
99953.899903875702876
99936.309515342392842
99916.207592155595194
99885.433538757148199
99838.804811252732179
99786.892827032788773
99749.645417875624844
99739.849317454514676
99754.420705898228334
99780.554718171741115
99806.925389316485962
99828.801748039622908
99847.648472682965803
99868.490485806134529
99890.366207990300609
99903.10462935535179
99895.118027212723973
99869.689685040400946
99844.360253728998941
99836.566910301611642
99848.106478678935673
99863.895975798484869
99871.918479467829457
99870.270587890132447
99866.68687398955808
99865.036898138845572
99861.328842123635695
99847.749534331087489
99820.756162452264107
99784.59840105305193
99748.890208998593153
99723.23382501785818
99714.537436036407598
99719.816738806752255
99728.809809262704221
99729.830543786796625
99719.911464192351559
99705.49973025629879
99697.78916137732449
99706.088569998173625
99729.020412494413904
99753.862825126459938
99765.364100146980491
99755.1846592593065
99728.571751894181943
99700.327250058384379
99686.577424421921023
99691.180220350899617
99702.8028281997249
99703.087599390884861
99680.162037464571767
99636.966878796432866
99587.798844978053239
99547.463737731857691
99524.123496866173809
99518.527092737494968
99528.958700108196354
99552.632690806218307
99585.272644562850473
99617.865772387100151
99640.505820181686431
99648.091490949052968
99642.925593447653227
99633.410635150401504
99627.362483255332336
99628.637616925188922
99635.345492177206324
99644.013481375790434
99652.1338919109985
99659.008791394182481
99665.022708975331625
99669.342560011777095
99669.239291965845041
99662.583032140086289
99649.515686733197072
99632.51930807212193
99615.625278637875454
99601.823098144610412
99592.62270415891544
99587.643597474583657
99586.755263799132081
99590.011976147812675
99596.2557663921325
99605.033554086330696
99616.254578707099427
99630.065515691516339
99645.352959037365508
99660.384151552483672
99672.665260799782118
99679.58920156271779
99678.760078192935907
99668.801205382842454
99650.212100534030469
99626.098937259856029
99600.217519227226148
99577.00853663063026
99560.292361342639197
99551.960754883912159
99625.299935892413487
99626.522957391396631
99632.438646353024524
99645.008972460098448
99661.88095336270635
99677.641176912540686
99687.060563761086087
99687.687576931741205
99681.356835719838273
99672.802217624848709
99666.648018744774163
99665.061008309334284
99667.233384994877269
99670.810598390249652
99673.964189654565416
99676.363861512538278
99679.136058889460401
99683.402211586435442
99689.607166836998658
99697.433921219781041
99706.244257396174362
99715.440738215664169
99724.804074287225376
99734.146016080427216
99743.620235063688597
99753.857131591852522
99765.927741082661669
99780.203866061448934
99796.490894916511024
99811.985815754465875
99822.642355956835672
99824.98737833413179
99817.2973456641339
99801.182670805850648
99781.566136351582827
99764.555302065811702
99755.169207095328602
99755.585760348374606
99764.829275155687355
99779.618757319942233
99795.813574478772352
99810.387020318958093
99822.171165677529643
99831.798632812831784
99840.89588642900344
99850.568084494851064
99860.814208423529635
99870.100968691476737
99876.329394686443266
99877.178121314267628
99871.855626892254804
99861.355013613065239
99848.378034181048861
99836.744279218852171
99829.675906881864648
99828.677581331605325
99832.250596164099989
99836.61591296523693
99837.515690892279963
99831.832781453063944
99819.3018009596708
99802.736439522122964
99786.475413739914075
99774.399293859518366
99768.583293342613615
99768.809276088853949
99773.170273528725374
99779.459365825387067
99786.151040878234198
99792.733016610902268
99799.26444833255664
99805.464413529291051
99810.348380732393707
99812.513587428358733
99811.042211159889121
99806.08309431548696
99798.983114291317179
99791.491332797158975
99785.371119385832571
99781.262441310434951
99779.18091814473155
99778.037244274950353
99777.12845456355717
99775.704819592472631
99773.368868653647951
99770.193163157600793
99765.938961115723941
99760.412663085473469
99753.217021923002903
99744.387050242861733
99734.584278396519949
99724.792696135191363
99716.164747218732373
99709.892284037108766
99706.495572694155271
99706.067314341940801
99708.530455409476417
99714.127108411616064
99723.039751998527208
99735.212098268195405
99749.820342762235668
99765.293780752224848
99779.11405711453699
99788.841742434015032
99793.245523568984936
99792.375029307644581
99787.5865854533331
99780.958020941630821
99774.396821056638146
99769.386872747316374
99766.447782226474374
99765.44132197725412
99766.050602454706677
99768.041429467135458
99770.971747150280862
99774.600364328827709
99777.852869159061811
99779.92752740670403
99779.913105073181214
99777.030257629783591
99771.18077219784027
99762.755389074722189
99752.397451676763012
99740.723855006639496
99727.867638173993328
99713.620489453736809
99697.64667112508323
99680.275778953422559
99662.728072980273282
99647.187688617457752
99636.581863177721971
99633.893265728358529
99641.022270122455666
99658.039998730120715
99682.654208964915597
99710.282910355323111
99735.699785673103179
99754.270236049153027
99763.695451197723742
99764.444114402009291
99759.18636290539871
99751.68681833629671
99744.898028327792417
99740.088678366635577
99736.261985588746029
99731.15441590824048
99722.187313325805007
99707.795858167781262
99688.273784844277543
99665.742164552721079
99643.36578778961848
99624.268817850694177
99610.638063728794805
99603.194595144610503
99601.661686001636554
99605.319501541962381
99613.233024711662438
99625.526714086649008
99642.512701785977697
99664.21670554242155
99689.835439044240047
99717.354733934422256
99743.539142457579146
99764.559016194791184
99777.147266872008913
99779.647126651063445
99772.444526366845821
99757.69805168894527
99738.752786581826513
99719.005534063428058
99701.154810171196004
99686.659002026310191
99675.991308035270777
99668.909786327305483
99664.785967653035186
99662.940364933776436
99662.930077353244997
99664.536121056400589
99667.61872521728219
99671.728982951739454
99676.505283569611493
99681.437819508704706
99686.046102585882181
99690.194782077189302
99693.926187269578804
99697.301220252120402
99700.309347927613999
99702.640897670105915
99703.801780648558633
99703.253934603184462
99700.432565376031562
99695.113904535668553
99687.427556895941962
99677.842833225120557
99667.189094598317752
99656.417882486697636
99646.410185470318538
99637.757069943036186
99630.755984744842863
99625.433156927902019
99621.780546552399755
99619.812680516086402
99619.711751697264845
99621.581228503506281
99625.409790919860825
99630.904668729213881
99637.230444417669787
99643.385699273581849
99648.37111654583714
99651.731033056305023
99653.592233974399278
99654.739889608812518
99656.308186906127958
99659.470328564129886
99664.806328629492782
99671.914739240775816
99679.589610721392091
99685.925205029750941
99688.978371098768548
99687.105016521978541
99679.646262039037538
99667.005924552722718
99650.353309479862219
99631.448189430113416
99612.309932452189969
99594.936093453317881
99580.716232351405779
99570.585576070967363
99564.899298171018017
99563.451044657500461
99565.780000172744622
99571.192033677827567
99579.041893276706105
99588.488688198078307
99598.936805995457689
99609.539299721101997
99619.471076734684175
99627.940101089247037
99634.035528940017684
99637.215362486545928
99637.126014138688333
99633.889594380714698
99627.965851953616948
99620.138360066324822
99611.161845093694865
99601.752564512862591
99592.48667453872622
99583.615109907696024
99575.511984163327725
99568.295700221511652
99562.160355560554308
99557.498998989089159
99554.518148378949263
99553.086634999839589
99921.586081730245496
99963.159995891386643
99957.859719751126249
99922.224226917111082
99831.446785414314945
99640.983873032775591
99594.946189183916431
99687.608567232033238
99743.570951598972897
99791.521081237369799
99812.283695211444865
99795.173300398615538
99848.088020690629492
99967.337326821449096
99985.368932427736581
99861.74451417644741
99765.969925378798507
99772.711336480075261
99810.690513654568349
99864.959011755825486
99938.037683130896767
99946.704308540734928
99857.542598911793903
99762.587587339701713
99750.118334677084931
99766.534893410629593
99744.804522754013306
99714.226877064385917
99708.182575991653721
99722.166696706801304
99768.93461875221692
99850.259014532930451
99917.632216674508527
99933.007269165318576
99917.72932054233388
99915.03948133814265
99923.341237535190885
99929.440539080023882
99930.996803426736733
99924.526508116643527
99908.522274867922533
99903.353959259446128
99928.344654759930563
99985.102970998705132
100044.14125719109143
100069.35097013258201
100054.78781679428357
100028.45908366350341
100022.23979485633026
100043.07012260885676
100070.28350485289411
100082.32163254695479
100081.23783063306473
100074.69630933328881
100072.70437178724387
100082.79017579639913
100097.50614820751071
100095.34188807822648
100062.32002988262684
100015.0294849161437
99986.486958431574749
99997.416760600099224
100044.20373926049797
100098.22474757696909
100125.43114535599307
100118.09490576712415
100102.9062904122984
100109.29786770287319
100136.94575697230175
100158.97770620342635
100153.87780814133293
100129.31209517912066
100110.03488546045264
100109.34929573917179
100113.80500987822597
100099.01558993427898
100056.9221096183901
100006.01899958748254
99969.583053871523589
99957.977227137627779
99965.485563330235891
99980.951548892233404
99994.724501093005529
99997.990838723024353
99989.168474265024997
99976.437465261318721
99975.561935287216329
99989.054399957327405
100004.39571436043479
100007.25337970368855
99994.602960980802891
99974.133930534662795
99949.385696009383537
99916.979853161028586
99875.448105176736135
99833.674699028924806
99805.181127842646674
99798.843888432747917
99813.124847070721444
99837.214410910150036
99857.737819494810537
99867.326810942016891
99870.120096609782195
99877.726384946654434
99895.853558152608457
99915.171761294375756
99917.537736414436949
99899.078329572250368
99875.857838152238401
99869.022575219161808
99886.732194223121041
99915.882483441004297
99936.335907797300024
99937.659688242085394
99923.82885858649388
99901.074508685152978
99874.967635720706312
99847.749626391916536
99819.721504593588179
99792.470317859537317
99769.022102317481767
99753.004708856111392
99748.324163882396533
99752.292463015255635
99756.342119302062201
99749.308125843454036
99728.826710956069292
99704.223411737766583
99689.251554187838337
99694.632778925093589
99719.105021276554908
99748.588040056696627
99765.874797941898578
99761.08304260535806
99738.752584508009022
99714.733886250964133
99705.093474117806181
99712.985248455705005
99727.013984637058456
99728.330190286244033
99704.749747037596535
99660.378839423778118
99610.904459840850905
99572.143284451740328
99551.462074931507232
99550.159176153072622
99564.572946464846609
99591.062323768870556
99623.33894436013361
99650.718369723166688
99663.897661675058771
99659.703583857350168
99643.500480852017063
99624.839610040973639
99612.838423583991244
99611.335743252842803
99619.156055127969012
99632.345952362549724
99646.458790880380548
99657.126331758016022
99662.206040880715591
99660.890286696361727
99653.982505415944615
99643.321340614624205
99629.837903439300135
99616.135300721187377
99602.626088336794055
99590.092210498653003
99579.689300329031539
99572.870281387266004
99572.183852524409303
99579.805408911925042
99595.941314271767624
99618.100767373398412
99641.11854580322688
99659.282823975838255
99668.500613135111053
99668.315168402041309
99662.085635607174481
99654.371789070020895
99647.918644637567922
99640.855653745253221
99630.706015806121286
99615.896810048157931
99597.870736907017999
99580.341959730300005
99566.937114287895383
99559.312415167412837
99556.68104163184762
99664.106613166601164
99664.758879958259058
99663.8876507748937
99665.135496058981516
99671.196078758017393
99681.183775801386219
99691.106623590821982
99696.140943991456879
99693.497296013054438
99684.272584351725527
99673.254720954515506
99665.585452124083531
99663.95878092404746
99668.13307880909997
99675.90147284331033
99684.814841817773413
99693.071875371344504
99699.950317782917409
99705.840810399851762
99711.77395323041128
99718.229708990373183
99726.209909489843994
99735.841948889545165
99746.355489171750378
99756.619212124423939
99765.806453135126503
99774.287981979141477
99783.951236272725509
99796.087498627297464
99810.801256503895274
99825.412982976136846
99836.065078181811259
99838.713362875510938
99831.952988095101318
99818.016421394480858
99801.934005706789321
99789.328472338471329
99784.029306551325135
99786.843158896823297
99795.771630801929859
99807.530157895511365
99819.106539425018127
99829.170095827328623
99838.341666906955652
99848.043862187536433
99859.404901770030847
99872.252097148055327
99885.211416318838019
99895.498755201129825
99900.384470873905229
99898.031031288905069
99888.359766815119656
99873.616884201415814
99857.851631695521064
99845.541085783130256
99840.084814645990264
99842.008568580509746
99848.702063083575922
99855.270071213497431
99856.369636952149449
99848.57447626371868
99831.78157451734296
99809.349533371263533
99786.630907337588724
99768.753780840910622
99758.979484428375144
99757.837228962176596
99763.934432282840135
99774.313002264476381
99785.908164725158713
99796.881844388102763
99805.939154225692619
99812.609681419387925
99816.189916927891318
99816.725976325004012
99814.053717536924523
99808.839405326682026
99801.725216077757068
99793.338291818130529
99784.436083211825462
99776.080720566198579
99768.933501384555711
99763.755894945483305
99760.767297783051617
99759.909094245391316
99760.59940656836261
99761.553704451216618
99761.245983702276135
99758.276112631894648
99752.015578682054183
99742.556961943162605
99730.83620166304172
99718.303531277124421
99706.50312650075648
99696.867430262325797
99690.166269865891081
99686.790775464367471
99687.249501588186831
99692.098193902580533
99701.781432017523912
99716.207246645557461
99734.385450587884407
99754.485424924016115
99773.679516210337169
99789.227433637002832
99799.388211278594099
99803.78831711820385
99803.4286844379385
99799.995155124095618
99795.146234429208562
99790.042587973468471
99785.077843912091339
99780.447607387017342
99776.4671181213198
99773.704899083881173
99772.830657823113143
99773.776215409729048
99776.065079833570053
99778.821900462295162
99780.484468364811619
99779.723578479752177
99775.803610737901181
99768.375246250841883
99757.95330982177984
99745.285989901385619
99730.823647873752634
99714.794041622575605
99697.62888879943057
99680.027251424646238
99663.587609291746048
99650.564813842982403
99643.653476730411057
99645.193660191245726
99656.224877873217338
99675.997611490558484
99701.497293868786073
99728.079563074905309
99750.761684603203321
99765.778059124888387
99771.864667336049024
99770.2089197737223
99763.912905041477643
99756.477369308078778
99750.426216797859524
99746.115316672323388
99742.019786950797425
99735.407709950421122
99723.912824850442121
99706.483049643153208
99684.127627451147418
99659.583404675257043
99636.331693595115212
99617.31887752644252
99604.324967175183701
99597.747082353555015
99596.645081825554371
99599.574114061746513
99606.327333390290732
99616.963590218001627
99632.405182747374056
99653.220493462489685
99678.625470367405796
99706.196335353160976
99732.336780057492433
99752.82754948004731
99764.209223761150497
99765.013953201807453
99756.136877099634148
99740.509558741207002
99721.992813734483207
99704.170594099967275
99689.617899076620233
99679.362297392144683
99673.058217436511768
99669.703425806379528
99668.153259664672078
99667.505401961054304
99667.413233136365307
99667.762275754939765
99668.981957541574957
99671.252501435970771
99674.565118582861032
99678.62545246227819
99683.095648193542729
99687.833050479370286
99692.548201940589934
99697.034377629490336
99700.89500235520245
99703.781831124288146
99705.132907033985248
99704.452777393977158
99701.53096238746366
99696.46330590636353
99689.71950666232442
99681.917545392047032
99673.683237874414772
99665.530519790365361
99657.806106057425495
99650.547066791463294
99643.692366566916462
99637.287506084627239
99631.453956337820273
99626.70272732101148
99623.70316103521327
99622.934879073698539
99624.500710915497621
99628.141135250916705
99633.030384453813895
99637.894278345484054
99641.730648436932825
99643.878764743843931
99644.536525879026158
99644.623115500158747
99645.331791003496619
99648.09023364908353
99653.661428143459489
99661.96274966445344
99671.781430918767001
99681.109045909586712
99687.656845892081037
99689.605813801594195
99685.801401217700914
99676.103495499846758
99661.383176489121979
99643.330879069952061
99624.122398684354266
99605.839406325118034
99590.306144419722841
99578.805125958475401
99572.030041491510929
99570.078121222759364
99572.544285740252235
99578.599430145710357
99587.297946738486644
99597.704405317490455
99608.903976872024941
99620.066450824466301
99630.194964651149348
99638.458171435879194
99644.197169549152022
99646.803897930178209
99646.155600277154008
99642.383993566560093
99636.060663111027679
99627.976069515178096
99618.99138483205752
99609.889344398194226
99601.085479383313213
99593.071190413655131
99586.003089079968049
99580.055291935335845
99575.610390957925119
99572.812322308935109
99571.668745013637817
99572.154372703298577
99989.402449770554085
100108.84620970001561
99982.332676519290544
99838.280630601628218
99696.071141261098091
99666.980236219926155
99781.91525799613737
99807.013479620363796
99765.933155061866273
99837.539615876215976
99930.73338317280286
99918.554548207539483
99902.17005111425533
99960.656408899420057
99984.376544255646877
99910.208291545306565
99861.763208473741543
99881.622519495605957
99893.524284446481033
99889.8416425819305
99934.932917572761653
99981.313504703619401
99927.565494951049914
99829.032979133146
99801.61972902425623
99815.603318172332365
99784.429430017742561
99725.921261791809229
99700.184377102646977
99722.951149309796165
99784.599550943865324
99873.123889385155053
99950.588612285719137
99986.745307464385405
99989.960028361150762
99983.082749636319932
99972.642735746267135
99963.876464928485802
99954.197910323069664
99934.26605663196824
99904.413535320752999
99886.985502219453338
99906.663026140609873
99969.565096232065116
100039.81752952502575
100075.86324015243736
100072.09745004058641
100052.71535639870854
100036.22292834607651
100025.82717575704737
100018.26251221701386
100014.82640967846964
100016.36780530393298
100021.17783534787304
100030.53647776292928
100049.41423092252808
100074.90479649936606
100088.30175571843574
100073.73286507054581
100039.51172551863419
100010.42346071617794
100010.36743082923931
100045.47914698613749
100099.63337810520898
100139.68415536408429
100144.35976178350393
100125.22279317422363
100116.5040383432497
100133.64100930053974
100158.42234633283806
100162.90551529926597
100141.2910890855419
100114.58353003008233
100101.34485220676288
100101.7019927266083
100101.31211237773823
100087.44006931640615
100062.85762078980042
100037.94181437046791
100020.84336632677878
100013.69320158433402
100012.75976849730068
100012.26590765916626
100008.81813765107654
100002.35023308995005
99998.623922930142726
100001.97540399942955
100011.54274972256098
100022.29611498361919
100026.84976127458503
100020.98238266521366
100006.28232292970642
99982.188896774008754
99952.767542054847581
99921.33249214226089
99893.735926314955577
99876.277528307124157
99872.812157553198631
99883.572362864826573
99901.109790275455453
99914.130705839401344
99913.430078323741327
99903.795109631144442
99899.78005110110098
99911.638937993498985
99930.745029537589289
99937.494450593105284
99922.568546602022252
99900.09042361502361
99896.381245336378925
99923.017699290780001
99966.180532585829496
99995.788322662527207
99995.377199691560236
99966.255210022587562
99922.932240633512265
99881.238127008284209
99849.319335522901383
99827.984586810081964
99813.939461306494195
99802.228313898827764
99792.534162455456681
99787.505817722805659
99788.085877317440463
99787.476341807618155
99777.379536559354165
99753.024261223341455
99722.475227451723185
99700.230977723214892
99696.81808981190261
99712.688798331728322
99737.635922973233392
99757.468831098420196
99762.329194663543603
99753.183902149961796
99741.665582015761174
99738.104731149942381
99745.058033006949699
99753.118501144403126
99747.918412136845291
99721.407650209730491
99679.650316665400169
99637.382707548487815
99607.16413241068949
99594.828360008366872
99598.300787438129191
99612.815594330008025
99634.629393576600705
99657.522994564875262
99673.489760187483625
99677.242988187936135
99666.616513826229493
99646.239651324620354
99624.441862819439848
99609.000795100189862
99604.584413293458056
99612.6310999115085
99630.142204152652994
99650.579537145225913
99664.758951091978815
99666.588417322913301
99656.208336406270973
99638.349273157757125
99619.294152783651953
99603.31118750081805
99591.394004822766874
99580.599271488012164
99569.458477861466235
99558.190959684128757
99550.254056874327944
99551.039093361439882
99564.96117851510644
99592.44662608501676
99627.934235067601549
99660.732560028714943
99680.462342648053891
99681.907057170741609
99667.304232444454101
99645.262759346427629
99626.187287693290273
99615.628265922277933
99613.253729381613084
99612.943716455236427
99610.146995553935994
99604.121385309263133
99596.297525099245831
99588.592157428065548
99581.337918377132155
99573.021183630538872
99704.870547047758009
99705.677382245048648
99700.148643373162486
99692.8043555043987
99688.250028706301237
99688.760318915854441
99692.664338409042102
99695.452217511759955
99693.41380253371608
99686.306884103527409
99677.07153728310368
99670.062935025416664
99668.776752345627756
99674.205644809335354
99685.514607993420213
99700.032491798323463
99714.636191380021046
99726.496230039469083
99734.654986829598784
99739.580777533832588
99743.712726757876226
99749.219770983909257
99757.330786770937266
99767.278370668092975
99777.133991217793664
99785.655483192298561
99793.181607755454024
99801.923191319074249
99813.702083856216632
99828.153532090043882
99842.911974665912567
99853.29463053678046
99855.538884842957486
99849.269861272128765
99837.236626589830848
99824.244137278146809
99815.195413894878584
99812.816139302711235
99816.714148443512386
99824.061803132935893
99831.950012476489064
99838.469425718867569
99843.939514661862631
99850.460993133296142
99860.052664330592961
99873.392736275593052
99889.033601503644604
99904.10517764549877
99914.615146714626462
99917.707284958101809
99912.179927429853706
99899.130538407582208
99882.059074662960484
99865.718586754213902
99854.76794335534214
99851.958974548921105
99856.671684934990481
99865.407813062454807
99872.438135116288322
99872.121352881003986
99861.336012428990216
99840.50723925071361
99813.527429109264631
99786.248656030147686
99764.319146577065112
99751.675616890206584
99749.303796573789441
99755.438338225736516
99767.101860731854686
99780.764537698283675
99793.466982864119927
99803.703223390999483
99810.6619082641555
99814.68198244960513
99816.009889458073303
99814.898951282972121
99811.572919968370115
99805.183456696395297
99795.447484626376536
99782.803933921430144
99768.749148215953028
99755.581878302939003
99745.673507234154386
99740.550870063700131
99740.538523049399373
99744.185350789775839
99748.912675704108551
99751.690975879944745
99750.397834989693365
99744.118629594391678
99733.559568301847321
99720.228612750259344
99706.192994414479472
99693.179873806453543
99682.165059468548861
99673.990643947647186
99669.226348098527524
99668.43771792082407
99672.510344380061724
99682.006857460699393
99697.084920371315093
99717.17688066730625
99740.393029133410892
99764.099898061467684
99785.239087146459497
99801.369641249708366
99811.509978598624002
99815.941228575160494
99815.625284289897536
99811.873920261801686
99805.592382835166063
99797.754878341918811
99788.95562668259663
99780.318507480842527
99772.984999264939688
99768.177609098216635
99766.549139189286507
99767.758751754969126
99770.643456929654349
99773.736456354890834
99775.141519898170372
99773.275914742873283
99767.615234026423423
99758.422336551477201
99746.374466004446731
99732.330899481050437
99716.992100162591669
99701.14930368187197
99685.783039246336557
99672.376856741364463
99662.931571086039185
99659.610693749564234
99664.108746368205175
99676.823675097999512
99696.424894467229024
99719.758044412679737
99742.56309819217131
99760.779840748640709
99771.644960736171925
99774.568679533069371
99771.115207009701408
99764.317083669302519
99757.180309319199296
99751.471737612315337
99746.923078181411256
99741.893032398118521
99733.718712075031362
99720.425426104106009
99701.676531721590436
99678.985843951886636
99655.231309994414914
99633.5277574461943
99616.332925199763849
99604.954004534796695
99599.201982445199974
99597.597384877619334
99599.152104283202789
99603.375334915763233
99611.401042437631986
99624.055351746443193
99642.160990094955196
99665.119472130478243
99690.312825605520629
99713.840563215329894
99731.539409293982317
99740.305032151489286
99739.150834722429863
99729.448178627237212
99714.575245778934914
99698.552499843848636
99684.772595895061386
99675.350109924693243
99670.787780407219543
99670.00918134819949
99671.190722970859497
99672.81823341375275
99673.898970296650077
99674.043802785046864
99673.715945687828935
99673.494014690455515
99674.029063587455312
99675.658122844615718
99678.501012107459246
99682.415368720161496
99686.874580872696242
99691.546779591284576
99696.052282961827586
99700.04680969635956
99702.972162228135858
99704.289857504612883
99703.62742718863592
99700.841452941152966
99696.237197261754773
99690.298410179151688
99683.704197589933756
99677.091824473973247
99670.73841491767962
99664.654932643650682
99658.650973029536544
99652.46865407601581
99646.081028361411882
99639.765855898687732
99634.007784544010065
99629.500818883359898
99626.858789648904349
99626.255821988641401
99627.342425256676506
99629.450753097771667
99631.454694652959006
99632.52962749839935
99632.258683149979333
99631.092283627905999
99629.839136901195161
99630.03527996520279
99632.980587755781016
99639.425432440679288
99649.247370968427276
99661.229984723409871
99673.497909126323066
99683.573135785001796
99689.316842273779912
99689.235732197310426
99682.801562084991019
99670.688926749076927
99654.388301210245118
99635.941884273546748
99617.611740740234382
99601.473921905373572
99589.106711814747541
99581.356762631228776
99578.592999918313581
99580.460604277614038
99586.163370041133021
99594.642891295210575
99604.797381071344716
99615.513661558405147
99626.021375663636718
99635.465387053685845
99643.055997476869379
99648.149098722366034
99650.384778956358787
99649.664346272154944
99646.197034801327391
99640.457802503922721
99633.136426234079408
99625.008656551013701
99616.763006125271204
99608.958014545598417
99601.908871738516609
99595.950645295466529
99591.266330835802364
99588.035545630627894
99586.425457991659641
99586.529136764496798
99588.341316610953072
99591.465203153158654
99817.494013376082876
99658.130076364410343
99876.783151966985315
99938.878481229752651
99748.821811478410382
99669.41991075524129
99737.244999217335135
99734.340139370688121