/*--------------------------------*- C++ -*----------------------------------*\
  =========                 |
  \\      /  F ield         | OpenFOAM: The Open Source CFD Toolbox
   \\    /   O peration     | Website:  https://openfoam.org
    \\  /    A nd           | Version:  12
     \\/     M anipulation  |
\*---------------------------------------------------------------------------*/
FoamFile
{
    format      ascii;
    class       volScalarField;
    location    "0.0145";
    object      p_0;
}
// * * * * * * * * * * * * * * * * * * * * * * * * * * * * * * * * * * * * * //

dimensions      [1 -1 -2 0 0 0 0];

internalField   nonuniform List<scalar> 
75962
(
99626.216935243690386
99509.86754601096618
99746.109047698773793
99736.059787409292767
99857.577602545148693
99940.118889859193587
99907.720181910437532
99879.676077022828395
99844.509104684038903
99806.185202862223377
99744.752556425097282
99698.017664545142907
99770.445445805627969
99904.067593333209516
99922.725811469019391
99812.479887328838231
99715.670271152252099
99706.36358922701038
99753.336937511034193
99827.759505221096333
99905.475344286445761
99913.659484197400161
99837.786807461103308
99758.630296077753883
99749.404952277051052
99756.315728440182284
99735.312727974873269
99721.225665115416632
99732.016582757991273
99752.224953768250998
99789.529712284347625
99844.776706160861067
99882.595381279141293
99871.445148016588064
99843.505438737149234
99842.623630400528782
99867.749507865984924
99895.491882482063374
99910.509606627645553
99916.889553600296495
99918.524565278479713
99931.344176991929999
99962.129687823020504
100002.69780174909101
100037.9443820258748
100049.20304176249192
100029.32741763100785
99997.525890134173096
99993.312764903224888
100033.20783703861525
100088.15508707947447
100121.09393107811047
100127.54858940039412
100122.43606153361907
100115.80541634952533
100114.799300608458
100115.68073433302925
100098.50414809382346
100054.10957493263413
99998.832551436542417
99966.139589608093956
99978.858420362259494
100029.06557540585345
100079.04579445721174
100094.88779523686389
100078.87325150132529
100065.04760503015132
100077.21518681409361
100107.4513497252774
100127.31199565979477
100121.65614773376728
100102.51584806357278
100093.18991378157807
100102.74918283443549
100110.69188550378021
100089.57902681021369
100034.582348506985
99969.8866298829671
99924.596622332755942
99911.023476807633415
99922.227708881589933
99947.532490957702976
99973.918556191594689
99986.322340032711509
99976.672879929988994
99953.582728667141055
99940.115021742953104
99947.245030334641342
99962.215478403159068
99965.467997629035381
99953.420358132047113
99935.735413452101056
99915.472416026575956
99884.264350671015563
99837.294776416747482
99785.578903905508923
99749.10682367895788
99740.265252292520017
99755.488548782363068
99781.853308313686284
99808.185448197691585
99829.972965460008709
99848.859444053901825
99869.81515704956837
99891.584390185409575
99903.814022023172583
99895.104507690004539
99869.298419903207105
99844.265243008456309
99837.084216981907957
99849.009333680078271
99864.699086152628297
99872.412775743447128
99870.594882790755946
99867.074404088052688
99865.43986790132476
99861.483074206189485
99847.425323152405326
99819.976206247345544
99783.611733955825912
99748.057289918870083
99722.870487907988718
99714.713189639820484
99720.295032008492853
99729.179608507591183
99729.843600447478821
99719.654446087457472
99705.330808014870854
99698.116579377703601
99707.030358075600816
99730.265470599100809
99754.827598241958185
99765.570481066723005
99754.571745372944861
99727.526478832631256
99699.49946907388221
99686.378999185006251
99691.483865856382181
99703.015566664573271
99702.618112548530917
99678.839351272545173
99635.122200929021346
99585.987454301750404
99546.159769058780512
99523.483475602319231
99518.543501632317202
99529.541015868599061
99553.640773355422425
99586.455956192818121
99618.839600487728603
99640.972479888834641
99648.027314737715642
99642.552875127395964
99633.063772099805647
99627.246081615361618
99628.771279899548972
99635.613981164613506
99644.298625202616677
99652.40540574293118
99659.274993518498377
99665.270723169945995
99669.4772032868932
99669.15679617060232
99662.223820332597825
99648.935108486024546
99631.845412693000981
99615.011915808689082
99601.340412879668293
99592.284184993710369
99587.430806611693697
99586.672657122602686
99590.059157117706491
99596.415080754071823
99605.33005175839935
99616.696511102330987
99630.632788466085913
99645.970840517504257
99660.938303410555818
99673.031941955341608
99679.660042781004449
99678.464674614151591
99668.103934496612055
99649.201730043583666
99624.919328611402307
99599.053084225291968
99576.056850030596252
99559.684655572942575
99551.738544541105512
99625.442557036833023
99626.762594985746546
99632.866265913966345
99645.596526574663585
99662.439905491904938
99677.944320278096711
99686.955883809074294
99687.184938420832623
99680.62660398564185
99672.071606769721257
99666.078214067048975
99664.690371643126127
99666.992670486826682
99670.600815302866977
99673.737164798891172
99676.138690708627109
99678.965348579920828
99683.326483414130053
99689.623431230036658
99697.520877522663795
99706.380493807198945
99715.616925648471806
99725.004389702895423
99734.36129035774502
99743.860164765181253
99754.150402598752407
99766.307755743808229
99780.675803450198146
99797.000230332458159
99812.398002669229754
99822.80103059358953
99824.779905759452959
99816.711335026178858
99800.348296718599158
99780.720277094646008
99763.935623186873272
99754.934774517372716
99755.778032419664669
99765.352920038174489
99780.31506632984383
99796.535062410810497
99811.045535561803263
99822.754093050127267
99832.3435787257622
99841.448472712756484
99851.144995334165287
99861.362023677458637
99870.539894085464766
99876.569724446322653
99877.151393196341814
99871.578505749130272
99860.92334273729648
99847.928595238088747
99836.446573101173271
99829.632396058004815
99828.895052952429978
99832.617992636893177
99836.954678224865347
99837.659857145001297
99831.705118436322664
99818.947889955816208
99802.306765136105241
99786.154386770445853
99774.315297228211421
99768.770023789387778
99769.227939573451295
99773.720711030138773
99780.04372004175093
99786.715278263727669
99793.26935576176038
99799.763865431625163
99805.903421320981579
99810.679667929376592
99812.709214200396673
99811.100405461897026
99806.036487568853772
99798.908920638699783
99791.443550263778889
99785.379395661788294
99781.316007874396746
99779.232204957486829
99778.052002212789375
99777.064050511529786
99775.583211925171781
99773.190265245735645
99769.990433050479623
99765.710184832263622
99760.143989557080204
99752.891141438711202
99743.997649379991344
99734.139974871242885
99724.321645487638307
99715.711900850074016
99709.508505415113177
99706.201279790417175
99705.882084455777658
99708.477589880872983
99714.22513364792394
99723.292234286622261
99735.601563150179572
99750.280158362045768
99765.719006227111095
99779.380578302763752
99788.860656522971112
99792.994817204962601
99791.900198097006069
99786.983900892388192
99780.335629581240937
99773.847238899281365
99768.96150945906993
99766.144671113215736
99765.228250703163212
99765.900086163150263
99767.92536428704625
99770.870340979497996
99774.471344526245957
99777.667302267538616
99779.648208373517264
99779.502866530165193
99776.479965880324016
99770.503552421025233
99761.985468897211831
99751.580485713449889
99739.893743952357909
99727.033752505492885
99712.774030298125581
99696.779897250657086
99679.410338526606211
99661.920986192548298
99646.55637518952426
99636.267799676788854
99634.022231490031118
99641.660152081967681
99659.134141617047135
99684.051257706800243
99711.746943375197588
99736.985186144564068
99755.201888876283192
99764.209851655672537
99764.603751412738347
99759.128439970183535
99751.563544898963301
99744.802589662838727
99740.026587321539409
99736.149701988237211
99730.874343984920415
99721.654626100207679
99707.002685113242478
99687.304904244476347
99664.743864275456872
99642.508826830846374
99623.690871744591277
99610.400015880863066
99603.283551353059011
99602.014804947350058
99605.884637489711167
99613.9768255995441
99626.460504912931356
99643.649460593791446
99665.546795553513221
99691.296689192749909
99718.818744286036235
99744.824889478739351
99765.484774864075007
99777.585472639038926
99779.5658337722125
99771.913810503334389
99756.861225990753155
99737.785940450223279
99718.072809070406947
99700.367859074613079
99686.078674851101823
99675.624326424702303
99668.733848060699529
99664.765625623476808
99663.039275753792026
99663.112959324105759
99664.77333866112167
99667.896658824989572
99672.008238852184149
99676.761509804360685
99681.643556629482191
99686.194177165423753
99690.301014060838497
99694.016499516510521
99697.399849208886735
99700.435426365656895
99702.78720899183827
99703.939471490142751
99703.346495002493612
99700.442430457740556
99695.009702396710054
99687.20264457880694
99677.515427520454978
99666.789750177587848
99655.981980447410024
99645.967055200628238
99637.328838803485269
99630.358953073082375
99625.07803604392393
99621.487382209204952
99619.61141002997465
99619.635061960521853
99621.651191023542196
99625.618919055952574
99631.220574086881243
99637.598647034130408
99643.742705536657013
99648.659398286676151
99651.92585022917774
99653.704283728671726
99654.816725691984175
99656.410284691271954
99659.648139567259932
99665.081917935720412
99672.253593806672143
99679.908491209018393
99686.125996189162834
99688.963243375605089
99686.808299022115534
99679.049698517672368
99666.147983577582636
99649.319971479853848
99630.355316232089535
99611.269564044530853
99594.040835637861164
99580.033686745096929
99570.146241135065793
99564.712353041351889
99563.500717465853086
99566.042116257085581
99571.628218347817892
99579.614663830667268
99589.149742787325522
99599.626894027038361
99610.198416953862761
99620.032752113460447
99628.348614628033829
99634.253701071938849
99637.224508287195931
99636.935010030938429
99633.531938073792844
99627.485671450151131
99619.601269038539613
99610.614716203941498
99601.250992067914922
99592.056784178173984
99583.278834499957156
99575.287012490298366
99568.176947321320768
99562.149884173792088
99557.592420926725026
99554.69769335174351
99553.328734396825894
99931.919261580114835
99964.922073349836865
99957.650676235221908
99921.522884913982125
99826.741524663884775
99636.560854054434458
99596.110480734947487
99690.425076239189366
99745.806918694113847
99793.798828154278453
99813.374211581613054
99796.896391937320004
99852.430068807545467
99970.810109782745712
99983.947911434865091
99858.12423560633033
99764.817863111631596
99773.856238691325416
99812.294140652142232
99867.340725587477209
99939.631615096426685
99945.277458099997602
99854.09020230358874
99760.675803282880224
99750.336031077458756
99766.433871759887552
99743.889759618919925
99713.754874585254584
99708.384729842407978
99723.176348122156924
99771.233813958402607
99853.17476996104233
99919.404049662713078
99933.192745079664746
99917.706782137916889
99915.397795444834628
99923.681470163806807
99929.561053940196871
99930.972080878855195
99924.209836118287058
99908.274725588460569
99903.86963632061088
99929.9956611134985
99987.450602258788422
100045.9636049711844
100069.89316314486496
100054.43175265048922
100028.25081848175614
100022.78912767740258
100044.01458665802784
100070.89816305621935
100082.30879964824999
100080.8056807230023
100074.22458497216576
100072.55606597330188
100083.07246930000838
100097.6885126910347
100094.76659964496503
100061.03383417316945
100013.95723983396601
99986.479983922632528
99998.663316823978676
100046.14681790251052
100099.73967939945578
100125.7864248691476
100117.71188814454945
100102.82563104311703
100109.99696152027173
100137.82036349958798
100159.14962547684263
100153.17208016870427
100128.35801699435979
100109.51793930285203
100109.27744052300113
100113.4442056161206
100097.79375998312025
100055.12925222462218
100004.4563417450554
99968.850480742039508
99958.12761416027206
99966.152000759408111
99981.747675628124853
99995.325089165751706
99998.204689692734974
99989.121266882953933
99976.541712236037711
99976.107154865734628
99989.826030237076338
100004.83372173030511
100007.05506793627865
99993.969645187986316
99973.327034966525389
99948.452464638088713
99915.808946988763637
99874.149512754418538
99832.653440850801417
99804.808300528951804
99799.223549641799764
99814.042691972063039
99838.222574931904091
99858.49238857072487
99867.782394063557149
99870.600982791525894
99878.588613641462871
99897.031626474577934
99916.114585858362261
99917.794496152462671
99898.827777439000783
99875.745107993803686
99869.609284689853666
99887.911105618972215
99917.098123280156869
99937.002266060633701
99937.711392091703601
99923.445751953287981
99900.436152311522164
99874.217782051317045
99846.949473972330452
99818.91201576970343
99791.735092103961506
99768.493552095227642
99752.782397717877757
99748.44064067065483
99752.534751296712784
99756.355991254386026
99748.864415842792368
99728.099914265505504
99703.67760127420479
99689.353383012916311
99695.516598610513029
99720.438111200404819
99749.728037696884712
99766.26262793992646
99760.648230007471284
99737.89347063175228
99714.12239926114853
99705.083647013074369
99713.434749566396931
99727.323506220011041
99727.891401811488322
99703.414576139402925
99658.539735152939102
99609.156187386310194
99570.963443484768504
99550.998830578639172
99550.382668283928069
99565.327054747729562
99592.150142131213215
99624.427455401732004
99651.377641372484504
99663.909627795190318
99659.131195007867063
99642.670730414713034
99624.133594884056947
99612.495501863595564
99611.399196886937716
99619.508035871316679
99632.831169090102776
99646.913453871951788
99657.439704825883382
99662.308633544584154
99660.781434693286428
99653.676548032875871
99642.889710686227772
99629.334846605939674
99615.618369196308777
99602.117097025678959
99589.631028562755091
99579.316701079020277
99572.669205695070559
99572.256868155382108
99580.219615535315825
99596.661958822674933
99618.991121544240741
99641.949394088922418
99659.841477354479139
99668.678093370632268
99668.160861576820025
99661.739537721907254
99653.98592821204511
99647.512384192581521
99640.36314089098596
99630.025652704280219
99615.035170672519598
99596.954843158484437
99579.545278173740371
99566.390529610362137
99559.02600023879495
99556.582595678599318
99664.382917837720015
99664.892860436477349
99663.985923452652059
99665.318180896021659
99671.476294337946456
99681.444758804966114
99691.166260019672336
99695.846455104954657
99692.836738970843726
99683.408556215974386
99672.430269530217629
99664.99295060748409
99663.651248144014971
99668.050579276474309
99675.936563617477077
99684.870056163621484
99693.09376886235259
99699.938066449714825
99705.814163270872086
99711.776525915425736
99718.297605067476979
99726.377507649463951
99736.092544778541196
99746.64109401886526
99756.881513922329759
99766.034315983226406
99774.522490975214168
99784.262174122326542
99796.522671011960483
99811.315672649914632
99825.882730364188319
99836.316439826143323
99838.621004727756372
99831.517527370044263
99817.376038046917529
99801.316928330998053
99788.944039324764162
99783.975663221528521
99787.098398278409149
99796.227085296501173
99808.055139276621048
99819.620966612899792
99829.665656260491232
99838.864800124647445
99848.642064758969354
99860.087242235051235
99872.960098369803745
99885.840136950195301
99895.919117630706751
99900.493906724921544
99897.801526082286728
99887.84649152981001
99872.970513364722137
99857.280964926743763
99845.219111035592505
99840.097355436097132
99842.311390917908284
99849.137988116097404
99855.606107229104964
99856.405738112109248
99848.230730537048657
99831.131233800930204
99808.582419531376217
99785.97883560891205
99768.404629270706209
99759.02123003914312
99758.248055070624105
99764.595649984665215
99775.094832682952983
99786.680916035751579
99797.565025959309423
99806.488823784558917
99813.010392167576356
99816.442126448077033
99816.84282527952746
99814.061939198843902
99808.773002852394711
99801.604095379734645
99793.178083954931935
99784.248417684415472
99775.877852123318007
99768.747928787997807
99763.606802817521384
99760.680583630586625
99759.881181039338117
99760.620553658503923
99761.569145124929491
99761.203847039141692
99758.11946740966232
99751.721853149821982
99742.123742843890795
99730.299905639505596
99717.720233915330027
99705.925903200812172
99696.350969653751235
99689.757505148329074
99686.521316627316992
99687.155590193200624
99692.213239678472746
99702.122429549795925
99716.754091236434761
99735.063416376127861
99755.17780508249416
99774.249699890599004
99789.562756886094576
99799.435465233618743
99803.574410341010662
99803.026924488469376
99799.49886629600951
99794.626627744743018
99789.533158141741296
99784.590150186122628
99779.979354259121465
99776.035030050785281
99773.323806466563838
99772.512482699661632
99773.515309651003918
99775.83369801324443
99778.566136085559265
99780.144123583013425
99779.248092449153773
99775.175010948005365
99767.610360204213066
99757.089148452621885
99744.366842869058019
99729.880615532820229
99713.845467184670269
99696.69688823170145
99679.160011599597055
99662.863254387819325
99650.095287157819257
99643.552025674362085
99645.54507968488906
99657.040291977027664
99677.19152953059529
99702.891106123133795
99729.443441157331108
99751.886441841750639
99766.536764680218766
99772.243850423605181
99770.299861909225001
99763.849658043836826
99756.391325233664247
99750.376226073931321
99746.070598680118565
99741.874499870129512
99735.041340336625581
99723.254202838856145
99705.555935128431884
99683.045636654191185
99658.513809453768772
99635.449241853959393
99616.75306535474374
99604.112329670140753
99597.842097729575471
99596.980795476745698
99600.088086328061763
99607.002061427832814
99617.821395097358618
99633.491886429212173
99654.537071018465213
99680.09929567250947
99707.67947849171469
99733.635900431632763
99753.746950687840581
99764.619327114764019
99764.899800362429232
99755.593936635385035
99739.711536620670813
99721.138124322329531
99703.424803189205704
99689.083281515457202
99679.064331060857512
99672.965593808694393
99669.755546447253437
99668.298004425276304
99667.703940103558125
99667.642293553377385
99668.022331067899358
99669.259899073716952
99671.560438730230089
99674.883871746103978
99678.935780807092669
99683.385944925030344
99688.101576401822967
99692.799020283346181
99697.277808943763375
99701.131133979171864
99704.003695199819049
99705.319315916727646
99704.585891910581267
99701.5926100348006
99696.44461386607145
99689.628678186549223
99681.763659822681802
99673.478101596163469
99665.286102730911807
99657.525145178602543
99650.227277563506505
99643.336384479582193
99636.915559433808085
99631.101631078621722
99626.413233915576711
99623.525434693932766
99622.907387456885772
99624.626863716694061
99628.383886618394172
99633.330606111063389
99638.179627723351587
99641.941769649172784
99643.989668074689689
99644.562030564149609
99644.612734557755175
99645.361509905167622
99648.225391578598646
99653.930284290428972
99662.343558708467754
99672.189890701731201
99681.445336471078917
99687.797396543988725
99689.463599504815647
99685.341730295724119
99675.351354632701259
99660.415797252659104
99642.251184948516311
99623.051653732371051
99604.889961910535931
99589.559142660611542
99578.311015749699436
99571.811494486100855
99570.129612108838046
99572.842470746676554
99579.10364738861972
99587.951344195927959
99598.443879559650668
99609.659617143304786
99620.764641296584159
99630.775176165509038
99638.858025893670856
99644.387443008934497
99646.772186012953171
99645.923438809200888
99641.982397021929501
99635.548846117060748
99627.403068273968529
99618.422951314976672
99609.3622420149768
99600.637069812830305
99592.726516591341351
99585.762500064156484
99579.930018493643729
99575.602810819371371
99572.909968863255926
99571.85702273627976
99572.40954063324898
100013.86379069820396
100109.17108581562934
99978.421478753938572
99833.652054857710027
99692.91781514606555
99669.377362316387007
99785.887391684955219
99807.573896112822695
99767.576531003825949
99841.885052832192741
99933.211147696041735
99918.842546336658415
99903.843235083157197
99962.948416039085714
99983.678831316254218
99908.314258048514603
99861.767260712542338
99882.698105402261717
99893.787985498885973
99890.585384568112204
99936.803657911645132
99981.368891522230115
99924.841550386045128
99826.868725986176287
99801.651135210195207
99815.328689732894418
99782.667332431519753
99724.251605129000382
99699.983675705254427
99724.275874443206703
99787.139352729675011
99876.088849775027484
99952.651157362794038
99987.500058352350607
99989.998020100480062
99982.837221145411604
99972.235494607957662
99963.376274425943848
99953.556268041545991
99933.221730956138344
99903.454174610262271
99886.990140128924395
99908.22718471744156
99972.144108795197099
100041.99095425719861
100076.69155790228979
100071.95347157877404
100052.28090992762009
100035.82200755615486
100025.43998461072624
100017.89437780663138
100014.54293447214877
100016.26435121423856
100021.25573800115671
100030.86870211925998
100050.13673036410182
100075.6319279983436
100088.36163471282634
100072.99594737087318
100038.58948782866355
100010.1253081732284
100011.13475302667939
100047.14177668288175
100101.33297093906731
100140.42355457710801
100144.01534159728908
100124.640290209456
100116.56111783628876
100134.29005065120873
100158.79853900299349
100162.40778406259778
100140.24353294611501
100113.69163516061963
100100.95690271642525
100101.5640179993643
100100.9723572430521
100086.71901192018413
100062.04774480186461
100037.33067637476779
100020.5640191710263
100013.6994073077949
100012.91527237679111
100012.44674357654003
100008.96432133474445
100002.54045247897739
99998.975703131509363
100002.50918693377753
100012.09282797617198
100022.62680804234697
100026.82031040586298
100020.6055150606262
100005.58670093091496
99981.31967765148147
99951.861595673210104
99920.515944301587297
99893.195613452786347
99876.173721781451604
99873.156314823005232
99884.234341969451634
99901.765160213268246
99914.42400237552647
99913.3232708361611
99903.659568211223814
99900.166342702461407
99912.599822484757169
99931.66422515391605
99937.780866928616888
99922.283621758004301
99899.922382757955347
99897.081695920162019
99924.55624175806588
99967.750923754341784
99996.509159755092696
99994.976408516507945
99965.018485182037693
99921.431845053681172
99879.921504527694196
99848.392123952304246
99827.4126186928479
99813.572803778617526
99801.941568542664754
99792.338261109704035
99787.482985552313039
99788.115440450928872
99787.294168458523927
99776.767969049935346
99752.067631790981977
99721.638203197711846
99699.974905883951578
99697.292348966191639
99713.690564806485781
99738.680689531000098
99758.07275050978933
99762.355506494335714
99752.869251076263026
99741.45163869933458
99738.229960905286134
99745.396596886814223
99753.198995440427097
99747.317816851864336
99720.095532483173884
99678.030815310892649
99635.997109922696836
99606.359596962705837
99594.684241908093099
99598.642391669738572
99613.515998058457626
99635.463150865049101
99658.188865692864056
99673.735756298468914
99676.915322692773771
99665.807664942622068
99645.211836547256098
99623.539621403178899
99608.463354224673822
99604.536542266985634
99613.04367562502739
99630.824264891722123
99651.204779815496295
99665.026660017334507
99666.376439099520212
99655.61836029557162
99637.598996240703855
99618.58873014463461
99602.752779499263852
99590.929415519916802
99580.144372529233806
99568.988717688174802
99557.777460496625281
99550.094486356014386
99551.323570784792537
99565.805596718477318
99593.758797229005722
99629.374883459851844
99661.860715901537333
99680.932400833509746
99681.636724569558282
99666.523212497122586
99644.351695034551085
99625.497118752798997
99615.255441869157949
99613.074209376994986
99612.730658572923858
99609.799768213852076
99603.662190706992988
99595.811665023546084
99588.152696707707946
99580.921566289805924
99572.57341756587266
99705.195095595350722
99705.680727716724505
99699.924338235941832
99692.526147301308811
99688.052802462421823
99688.656784956619958
99692.519349782160134
99695.106655179872178
99692.811058248058544
99685.538228408564464
99676.326937886697124
99669.520670572237577
99668.540119445635355
99674.270343689684523
99685.792101807630388
99700.399719726541662
99714.950114855542779
99726.675509751090431
99734.684957948236843
99739.540672109942534
99743.704094906031969
99749.326398042219807
99757.567308406942175
99767.570197950597503
99777.403347713814583
99785.874223799750325
99793.402426631582784
99802.243169827677775
99814.181540361241787
99828.72395821705868
99843.443796467530774
99853.595675629956531
99855.504029776464449
99848.926845042733476
99836.740213844939717
99823.80202299632947
99814.96397083629563
99812.842273077068967
99816.942763565777568
99824.383483327241265
99832.265029048663564
99838.760363272886025
99844.25910817818658
99850.906041439142427
99860.681262447440531
99874.174661083801766
99889.850528495953768
99904.786231592079275
99914.994560712744715
99917.693513651189278
99911.776144705916522
99898.461155479861191
99881.325824479892617
99865.138894501986215
99854.500641253369395
99852.052799306271481
99857.041194017307134
99865.840261557357735
99872.685520626037032
99871.983070389527711
99860.750630268055829
99839.576457090428448
99812.471872025882476
99785.332783307254431
99763.75583244120935
99751.568879561295034
99749.639443104839302
99756.102517809951678
99767.921461558362353
99781.591624022694305
99794.181490403207135
99804.264792070738622
99811.05345769271662
99814.939652845569071
99816.159056815711665
99814.951168498038896
99811.52267117347219
99804.989403943807702
99795.09134168055607
99782.322957857802976
99768.215038031368749
99755.100436402368359
99745.347071256503114
99740.435560411642655
99740.617157417626004
99744.381597165760468
99749.106515485720593
99751.768745155495708
99750.289543150400277
99743.806292750959983
99733.077935906650964
99719.637958264371264
99705.561242988405866
99692.570773737636046
99681.623970587417716
99673.554042221541749
99668.938310262208688
99668.332985266955802
99672.628953706109314
99682.38314153853571
99697.713296325920965
99717.994199566484895
99741.287288145831553
99764.932333389253472
99785.879062118852744
99801.729651181958616
99811.571963241338381
99815.746900402766187
99815.228794364869827
99811.336125483372598
99804.95631901746674
99797.055413578098523
99788.23105565100559
99779.607503741091932
99772.349212227287353
99767.658090418815846
99766.169347816918162
99767.486850669374689
99770.421628737560241
99773.487977146476624
99774.787058135625557
99772.762673107601586
99766.940246497033513
99757.619715924651246
99745.488880591132329
99731.410741226514801
99716.082727710047038
99700.295122046329197
99685.035492527051247
99671.813101705280133
99662.646236131273326
99659.682596435406595
99664.583098308503395
99677.684451521970914
99697.566134433378465
99721.005582233206951
99743.721428464297787
99761.689367639002739
99772.221423696522834
99774.825464736335562
99771.14897163034766
99764.25434176195995
99757.114735096634831
99751.432719325224753
99746.856413334433455
99741.69374275233713
99733.286909630594891
99719.718991981702857
99700.737384211359313
99677.938281731010647
99654.234132138983114
99632.731036682685954
99615.833065139668179
99604.759669583960203
99599.270178417005809
99597.853304587144521
99599.540447178995237
99603.905834328499623
99612.119459718815051
99625.005850037763594
99643.353825044294354
99666.478965831527603
99691.677288668448455
99715.0144446438062
99732.341650993868825
99740.629834499806748
99739.006280870191404
99728.952684353498626
99713.918718532091589
99697.931357217152254
99684.335195397099596
99675.167683043342549
99670.850570105467341
99670.249300705603673
99671.519293712408398
99673.15553257119609
99674.21272466496157
99674.328773335335427
99673.987806819903199
99673.781910007892293
99674.345967046174337
99676.010590632547974
99678.881971147697186
99682.809952761570457
99687.263687376253074
99691.917219176131766
99696.397629597020568
99700.363338992989156
99703.249095580526046
99704.514089392047026
99703.787938378125546
99700.939922798308544
99696.280437343841186
99690.294441121252021
99683.66354596625024
99677.021491887862794
99670.630723067108192
99664.499594258726574
99658.442635238781804
99652.208314881238039
99645.780656729300972
99639.457131623057649
99633.734850117922178
99629.304314944456564
99626.768278967152582
99626.280586562570534
99627.454689060643432
99629.597215849207714
99631.580560217538732
99632.588663386879489
99632.242250640003476
99631.022412009580876
99629.773863686976256
99630.043942756034085
99633.126523784812889
99639.741661576961633
99649.709898175686249
99661.763264014880406
99673.976229152263841
99683.877848269286915
99689.34155878542515
99688.93082842232252
99682.179286323531414
99669.81227581865096
99653.367231434036512
99634.894738299248274
99616.655912515459931
99600.700244690364343
99588.580286063312087
99581.108843261492439
99578.624746953515569
99580.747655737141031
99586.662163082452025
99595.292630723837647
99605.533044908865122
99616.260307897537132
99626.70249608848826
99636.021817121290951
99643.443423955250182
99648.339708535713726
99650.377378679040703
99649.473459290995379
99645.863617206778144
99640.022797379991971
99632.657563872766332
99624.527276020220597
99616.323536121330108
99608.581566871624091
99601.611997817104566
99595.746944115380757
99591.157016302866396
99588.016768568864791
99586.496372046065517
99586.686983297942788
99588.570055185395177
99591.73475968062121
99811.142090324254241
99657.292453466361621
99881.27801653026836
99935.123343402112368
99743.563314511411591
99669.742909026463167
99738.648390731454128
99734.110773021486239