/*--------------------------------*- C++ -*----------------------------------*\
  =========                 |
  \\      /  F ield         | OpenFOAM: The Open Source CFD Toolbox
   \\    /   O peration     | Website:  https://openfoam.org
    \\  /    A nd           | Version:  12
     \\/     M anipulation  |
\*---------------------------------------------------------------------------*/
FoamFile
{
    format      ascii;
    class       volScalarField;
    location    "0.0145";
    object      pMean;
}
// * * * * * * * * * * * * * * * * * * * * * * * * * * * * * * * * * * * * * //

dimensions      [1 -1 -2 0 0 0 0];

internalField   nonuniform List<scalar> 
75962
(
99722.160875849906006
99722.756311219854979
99722.49580678838538
99722.33587841001281
99722.283082151276176
99722.140758929323056
99721.932148801293806
99721.676307066358277
99721.387691811352852
99721.064728437937447
99720.699535197156365
99720.303301315565477
99719.883158885699231
99719.425143508531619
99718.933286416518968
99718.441771568002878
99717.967215376600507
99717.492998877874925
99717.001795530799427
99716.48590503068408
99715.94728079077322
99715.396990612382069
99714.858092333030072
99714.341956526506692
99713.837269889510935
99713.332217512477655
99712.833393528271699
99712.347902791938395
99711.871220416927827
99711.398030041033053
99710.926082375488477
99710.450172567361733
99709.96878278531949
99709.490871682399302
99709.024356984271435
99708.568310689704958
99708.117364773250301
99707.671903783964808
99707.233264758295263
99706.803172473679297
99706.38117080948723
99705.966006452887086
99705.554637578970869
99705.144565844035242
99704.734542354417499
99704.327197118938784
99703.927958756306907
99703.541083096992224
99703.165976037067594
99702.794820041541243
99702.419613537320402
99702.039825160434702
99701.661168368722429
99701.287304206722183
99700.918537955265492
99700.554199122576392
99700.192988643655553
99699.836261230448144
99699.488756350401673
99699.156085120761418
99698.837695400492521
99698.526112518156879
99698.211843415585463
99697.890693477966124
99697.567478116659913
99697.249934723295155
99696.941097338349209
99696.636564531028853
99696.329555547868949
99696.017875695222756
99695.705129279289395
99695.395938355490216
99695.091249152697856
99694.786787225224543
99694.479191059523146
99694.17141221302154
99693.870784839236876
99693.582865835618577
99693.307058769860305
99693.03813060624816
99692.770472726158914
99692.500275578073342
99692.225743900358793
99691.948075647611404
99691.670843032203265
99691.398320588385104
99691.130774713485152
99690.864287711097859
99690.594554322495242
99690.32160996030143
99690.048544163088081
99689.777267404511804
99689.508028290059883
99689.241872142956709
99688.981927851564251
99688.730985984526342
99688.48792168883665
99688.24801976478193
99688.006087566522183
99687.759338893694803
99687.508059511586907
99687.253742441811482
99686.997501782127074
99686.738796165489475
99686.47645407867094
99686.210319884907221
99685.942797271593008
99685.678063668892719
99685.418307687257766
99685.1618810944492
99684.904534968402004
99684.643140132175176
99684.377601615138701
99684.10956329847977
99683.840065872631385
99683.569100868829992
99683.296811711028568
99683.024752097786404
99682.755596898350632
99682.491970670351293
99682.234981232046266
99681.983143256424228
99681.73353213876544
99681.483275296879583
99681.230635421525221
99680.976428870941163
99680.722880199944484
99680.471834673269768
99680.223056339440518
99679.973938721755985
99679.720982651342638
99679.46208753992687
99679.198133754834998
99678.933070845116163
99678.6714249055658
99678.415685061670956
99678.164438187057385
99677.914370550541207
99677.663119992852444
99677.411380653109518
99677.162593474567984
99676.921011122409254
99676.68896144250175
99676.465734313911526
99676.248467501805862
99676.034069583343808
99675.819779596233275
99675.603374455196899
99675.38282397162402
99675.157201930778683
99674.926986532736919
99674.694206204847433
99674.461198152450379
99674.229335752403131
99673.998690311360406
99673.76844868142507
99673.537531638721703
99673.305691554312943
99673.073549376960727
99672.841508749115746
99672.609807577799074
99672.37876653643616
99672.148954554009833
99671.921268992780824
99671.697156472553615
99671.477766192037961
99671.26346634697984
99671.053626108987373
99670.847346775044571
99670.643468006630428
99670.44076693415991
99670.237931855284842
99670.033968444316997
99669.828191479187808
99669.620108127317508
99669.409263324676431
99669.195302586522303
99668.978314009102178
99668.758773723355262
99668.537611098319758
99668.315876209453563
99668.094940984388813
99667.876461906911572
99667.661512263061013
99667.45094969656202
99667.245108602321125
99667.043184374968405
99666.843726065722876
99659.231842865163344
99659.038179353025043
99658.845204450422898
99658.651971291852533
99658.457507363447803
99658.261554028038518
99658.064752535690786
99657.868416127967066
99657.673950499738567
99657.482255634153262
99657.293384533521021
99657.10673586971825
99656.921536402078345
99656.737189247563947
99656.553491402126383
99656.370360932996846
99656.187842391373124
99656.005974504980259
99655.824547431097017
99655.643436275800923
99655.462612551898928
99655.281902275586617
99655.101085184709518
99654.919924986548722
99654.738238386882585
99654.555887045295094
99654.372725465087569
99654.188418626174098
99654.002440917058266
99653.814636398339644
99653.625547389689018
99653.436411968694301
99653.248878826576401
99653.064633546353434
99652.884782746928977
99652.70940062077716
99652.537582460528938
99652.367680476250825
99652.197890686336905
99652.026765604998218
99651.85349408671027
99651.677914253421477
99651.500273054771242
99651.320829746531672
99651.139683861008962
99650.956640012504067
99650.771478236594703
99650.584392427655985
99650.395903306445689
99650.206921663222602
99650.018575723326649
99649.831909789267229
99649.647498122372781
99649.465294992813142
99649.2845927040471
99649.104182289040182
99648.922835465447861
99648.739869810189703
99648.555301545304246
99648.369881144724786
99648.184679408033844
99648.00054428121075
99647.817720556588029
99647.635777250601677
99647.453955923963804
99647.271422926787636
99647.087418221592088
99646.901630100750481
99646.714062713377643
99646.524801321778796
99646.333892087030108
99646.141366193944123
99645.947434711866663
99645.752371812894125
99645.556571796681965
99645.360570201417431
99645.164807512788684
99644.969544326406321
99644.774767824506853
99644.580255724533345
99644.385766929000965
99644.191212224206538
99643.996634724666364
99643.802172073090333
99643.607860608331976
99643.413707643441739
99643.219640506868018
99643.02567380774417
99642.831959109724266
99642.638713006235776
99642.446039420057787
99642.254096574746654
99642.062909958942328
99641.872460569706163
99641.68261979050294
99641.493203600111883
99641.303950962639647
99641.114476244780235
99640.924366358376574
99640.733148653729586
99640.540390238529653
99640.345885300543159
99640.149666125245858
99639.952149067947175
99639.754076962432009
99639.556214941650978
99639.359209036658285
99639.163450527616078
99638.969030198219116
99638.7756942033011
99638.582995206757914
99638.390485221272684
99638.197910800940008
99638.005058959213784
99637.811756459108437
99637.617882346108672
99637.423495564478799
99637.228681234613759
99637.033671861907351
99636.838848592873546
99636.644630374983535
99636.451354331191396
99636.259180038367049
99636.068187324606697
99635.878349211081513
99635.689662872217014
99635.502197194189648
99635.316038702207152
99635.131322960267426
99634.948110264609568
99634.766152101408807
99634.584710942363017
99634.402578802153585
99634.218358308819006
99634.030687251666677
99633.838669513512286
99633.642068013155949
99633.441396492053173
99633.237646610010415
99633.032052513241069
99632.825715764251072
99632.619293702067807
99632.412985498260241
99632.206644467121805
99632.000063477447839
99631.793325662831194
99631.586954213911667
99631.381654695753241
99631.178112880428671
99630.976787333565881
99630.777778675328591
99630.580682210362284
99630.384786899987375
99630.189252122698235
99629.993362409295514
99629.796591088641435
99629.598559862337424
99629.39888667743071
99629.197146491991589
99628.992862037019222
99628.785478996636812
99628.574664764906629
99628.360353241194389
99628.14297284076747
99627.923335171682993
99627.70256968990725
99627.481896547353244
99627.262393156343023
99627.044768903680961
99626.829262726882007
99626.615692241641227
99626.403587893684744
99626.192306494267541
99625.981223448063247
99625.769822996648145
99625.557786405872321
99625.344786981746438
99625.130637161433697
99624.915237045031972
99624.698577739240136
99624.48075783427339
99624.261897186908755
99624.042218505957862
99623.82199809976737
99623.601406349698664
99623.380451988894492
99623.159032913434203
99622.937045340659097
99622.714444046010613
99622.491273320265464
99622.267659913515672
99622.043780410793261
99621.81994378316449
99621.596490777257713
99621.373689145955723
99621.151755102429888
99620.930819724904723
99620.710912087699398
99620.492031973932171
99620.274113395193126
99620.057041112944717
99619.840690421071486
99619.624904585783952
99619.409474551110179
99619.19409638158686
99618.978493359420099
99618.762494176902692
99618.546099660656182
99618.329454230362899
99618.11280011665076
99617.89643528747547
99617.68066568611539
99617.465691517805681
99617.251526306237793
99617.038081937440438
99616.825206927955151
99616.612822234426858
99616.401076051100972
99616.190324718554621
99615.981190331338439
99615.774481650922098
99615.571092381214839
99615.371870363203925
99615.177521384568536
99614.988463114481419
99614.804865437617991
99614.626630406361073
99614.453511282205
99614.285238783020759
99614.121547049478977
99613.962173031060956
99613.806939632617286
99613.655786311806878
99613.508722167272936
99613.365885499049909
99613.22751814017829
99613.094038989831461
99612.966013883138658
99612.844128148004529
99612.7291662273783
99612.621950704880874
99612.523370511713438
99612.434231147897663
99612.355260090727825
99612.287088707089424
99612.230326352932025
99612.185524060798343
99612.153157334687421
99612.133658289691084
99612.127408409200143
99612.134813912241952
99612.156366160023026
99612.192637193656992
99612.244223367990344
99723.229501640395029
99723.401515364836087
99722.374478749959962
99722.280834378267173
99722.290587167284684
99722.141718280588975
99721.938216026537702
99721.701261785186944
99721.415802168659866
99721.08174320073158
99720.705757289921166
99720.310473767895019
99719.897797311961767
99719.447033879114315
99718.96003419488261
99718.472508293198189
99717.999188653499004
99717.521633952565026
99717.027687038178556
99716.517312238021987
99715.988005824430729
99715.444281415562727
99714.906906399497529
99714.394688368454808
99713.89903657308605
99713.402797498361906
99712.910605210039648
99712.42963549871638
99711.956109109218232
99711.485007850555121
99711.013518420979381
99710.537058985719341
99710.053464733500732
99709.570703720790334
99709.098894367576577
99708.637569891972817
99708.18225583351159
99707.732194043783238
99707.290405922816717
99706.859848623644211
99706.443294959666673
99706.037545887535089
99705.634573610208463
99705.226994415104855
99704.81288973003393
99704.398103433282813
99703.992574874588172
99703.600551246592659
99703.218143335383502
99702.839096223950037
99702.459594952670159
99702.080491853092099
99701.705168436456006
99701.336414679200971
99700.974627981689991
99700.617480603483273
99700.261585575004574
99699.907329364432371
99699.560971378945396
99699.228832163818879
99698.910251589273685
99698.597737826217781
99698.282632200614898
99697.959922271620599
99697.632214395940537
99697.308081454451894
99696.992936159178498
99696.683387010183651
99696.371925788320368
99696.055505595664727
99695.737627663169405
99695.42387032553961
99695.116686241599382
99694.813040551060112
99694.508703646584763
99694.205024428563775
99693.907743276300607
99693.620560649011168
99693.342975775740342
99693.070784142662887
99692.799470879632281
99692.52648857155873
99692.251224938954692
99691.974828278936911
99691.699742208540556
99691.42803782010742
99691.158797717318521
99690.888177727727452
99690.613830618618522
99690.33634162171802
99690.059077273559524
99689.78429371045786
99689.513191859557992
99689.247320438575116
99688.988800816936418
99688.738503469372517
99688.49412850754743
99688.251208965084516
99688.005678850007826
99687.755287443855195
99687.500423204604886
99687.243234326029778
99686.986430719669443
99686.730541158394772
99686.473137563181808
99686.21168426098302
99685.947048212212394
99685.68333960804739
99685.42359484739427
99685.166765637128265
99684.908394067373592
99684.64423923852155
99684.37385758277378
99684.100108382510371
99683.826166246537468
99683.553824266055017
99683.284327810353716
99683.018033686937997
99682.75506434928684
99682.495783021498937
99682.240296207790379
99681.987777007001569
99681.736685962387128
99681.485044831191772
99681.232094707302167
99680.978866504898178
99680.727788709409651
99680.4805563922273
99680.236482510357746
99679.99248281076143
99679.744603340062895
99679.490275440577534
99679.230375464860117
99678.96869528357638
99678.709649780401378
99678.455906621762551
99678.206088472506963
99677.956979645910906
99677.705901015113341
99677.453516473950003
99677.203963871317683
99676.961810416367371
99676.72945716122922
99676.50616157586046
99676.288640601371299
99676.073258369942778
99675.857011840766063
99675.637768449567375
99675.413855883278302
99675.184955107746646
99674.952670479309745
99674.719453374724253
99674.487636823527282
99674.25833469198551
99674.031113637698581
99673.804476497229189
99673.576840998619446
99673.347313995298464
99673.115795989797334
99672.882842463630368
99672.649629112929688
99672.417616092061508
99672.188032972771907
99671.961904233437963
99671.739939086735831
99671.522613670356805
99671.309811473256559
99671.101117788537522
99670.896123842234374
99670.693945329185226
99670.4930909180257
99670.291768640556256
99670.088297942536883
99669.880939302995102
99669.668646968566463
99669.451848187454743
99669.232049346872373
99669.011188218646566
99668.790736850452959
99668.57129801280098
99668.352668055566028
99668.134873751550913
99667.918196057216846
99667.703458612799295
99667.49163749384752
99667.283328984383843
99667.078368072747253
99666.875777788212872
99666.67450400639791
99659.420627216735738
99659.223659536844934
99659.027660688152537
99658.832621078414377
99658.638010864407988
99658.44307348979055
99658.247322486437042
99658.05117334186798
99657.855781078425935
99657.662618678587023
99657.472746074345196
99657.28612375674129
99657.101941965214792
99656.919305333285592
99656.737365370136104
99656.555531193924253
99656.373560619424097
99656.191474002203904
99656.009565672808094
99655.827978333443752
99655.646618082406349
99655.465423540983466
99655.28429916742607
99655.103079648892162
99654.921633270263555
99654.739907461771509
99654.557859437845764
99654.375329587899614
99654.191885810738313
99654.006886579445563
99653.820142846714589
99653.631974196410738
99653.443461756993202
99653.256186070007971
99653.071739812745363
99652.891216641670326
99652.714619800564833
99652.540910514173447
99652.368612506164936
99652.19630737825355
99652.022954385582125
99651.848037254501833
99651.671530435356544
99651.493595813997672
99651.314136369866901
99651.13282018044265
99650.949207500190823
99650.763106943864841
99650.574739297619089
99650.384896090865368
99650.194812331130379
99650.005810218935949
99649.819074149883818
99649.635154244606383
99649.453668347676285
99649.273492742911913
99649.093285595721682
99648.911828058859101
99648.728445811037091
99648.543361082614865
99648.357556312708766
99648.172447426099097
99647.989092111005448
99647.80781138940074
99647.628223415682442
99647.44942745717708
99647.270277514122427
99647.089733076703851
99646.907090870081447
99646.722041314205853
99646.534615353128174
99646.344975705564138
99646.153462396512623
99645.960522654466331
99645.766622970710159
99645.572163213713793
99645.377533503939048
99645.183093868516153
99644.989136412972584
99644.795880871257395
99644.603450677765068
99644.411817412707023
99644.220785064477241
99644.030120453142445
99643.839494044572348
99643.648591673147166
99643.457114629884018
99643.265057439639349
99643.072592355514644
99642.880061302421382
99642.687915456350311
99642.496493984232075
99642.306026263351669
99642.116685920991586
99641.92852284599212
99641.741499055089662
99641.555341427752865
99641.369704323660699
99641.184106985543622
99640.997996169142425
99640.810777731909184
99640.621866085741203
99640.430889426468639
99640.237794238433708
99640.042899619249511
99639.846835071046371
99639.6504113835108
99639.454415336891543
99639.259386420380906
99639.065585643329541
99638.872896046290407
99638.681068820238579
99638.489875542145455
99638.29919438464276
99638.10889185180713
99637.918709889432648
99637.728404047200456
99637.537777395526064
99637.346718184984638
99637.155359287979081
99636.963967369156308
99636.772980232097325
99636.582825904377387
99636.393842066725483
99636.206283986160997
99636.020252352536772
99635.835745857126312
99635.652712152848835
99635.471198161307257
99635.291185691719875
99635.112543033246766
99634.93476791086141
99634.756987270026002
99634.578064498709864
99634.396750811778475
99634.211978204199113
99634.023092426286894
99633.83011708574486
99633.633699326470378
99633.434800899281981
99633.234518090393976
99633.033682614230202
99632.832721142563969
99632.631650324299699
99632.430269254808081
99632.228504965416505
99632.026691524428315
99631.825515536009334
99631.62583195210027
99631.428435924462974
99631.233814353501657
99631.041895878239302
99630.852135190201807
99630.663665540851071
99630.475591484646429
99630.287250298802974
99630.098117954374175
99629.907878188809264
99629.716190277758869
99629.522698015134665
99629.326882323250175
99629.128135996128549
99628.926049736051937
99628.720541765957023
99628.512007077195449
99628.301394605427049
99628.090012581029441
99627.879136732997722
99627.669810693361796
99627.462604616710451
99627.257606131155626
99627.054479598125909
99626.852604055427946
99626.651270691669197
99626.449850322824204
99626.248020168452058
99626.045630098160473
99625.842531266156584
99625.638690329826204
99625.434075007608044
99625.228787809057394
99625.02284309604147
99624.816280662271311
99624.609206416862435
99624.401735081919469
99624.193972388457041
99623.985970951020136
99623.777710755239241
99623.569231989938999
99623.360594753481564
99623.151872051428654
99622.94312778688618
99622.734526303756866
99622.526327513580327
99622.318754884690861
99622.112024557864061
99621.906264348086552
99621.701561014313484
99621.498002813852509
99621.295700780508923
99621.094757394239423
99620.895187783957226
99620.696907693243702
99620.499828828120371
99620.303745508092106
99620.108389017332229
99619.91351703798864
99619.718967347565922
99619.524681684895768
99619.330813331980607
99619.137647591138375
99618.945514945895411
99618.754706925727078
99618.565374050522223
99618.377469088300131
99618.190853090243763
99618.005327189704985
99617.820816910869326
99617.637437578159734
99617.455499214978772
99617.275631888449425
99617.09869881317718
99616.92561766752624
99616.757234169403091
99616.594259525925736
99616.437234357901616
99616.286438863855437
99616.141887012665393
99616.003402644317248
99615.870640027409536
99615.743202742785797
99615.620716635356075
99615.502905545232352
99615.389644462498836
99615.280924620325095
99615.17692901052942
99615.077987469849177
99614.984552726193215
99614.897184079381987
99614.816601211496163
99614.743620978944818
99614.679142355147633
99614.624041494345875
99614.579123545394395
99614.545025600440567
99614.522322302727844
99614.511545720437425
99614.513177010958316
99614.527670499286614
99614.555416018076357
99614.596847476408584
99614.652386129004299
99614.722494741959963
99614.807622894062661
99614.908242112374865
99720.54940062033711
99721.763396953159827
99721.646620501283905
99721.64159772930725
99721.726082984911045
99721.680550842691446
99721.521395905336249
99721.3223172143189
99721.111642175732413
99720.8560344032594
99720.528461597597925
99720.154959590028739
99719.7573770070303
99719.329062137490837
99718.867417998568271
99718.400603035828681
99717.942401848107693
99717.471675346954726
99716.980359379231231
99716.484574269707082
99715.981292552998639
99715.457565594260814
99714.928772577142809
99714.419269056976191
99713.925839671268477
99713.431427724601235
99712.941176808075397
99712.469095340697095
99712.014915329215
99711.56747455050936
99711.114790604886366
99710.648778358794516
99710.168609116823063
99709.681589483472635
99709.198637030800455
99708.724378856844851
99708.26006110056187
99707.805701395249343
99707.3609128343669
99706.924232132165344
99706.4996045409207
99706.089169589744415
99705.688807808910497
99705.288955309995799
99704.883062118969974
99704.473258528465522
99704.067348440672504
99703.669668378701317
99703.280727582299733
99702.899400994225289
99702.525633158729761
99702.159002285377937
99701.796721458405955
99701.436287068063393
99701.07746810511162
99700.719972509119543
99700.362412129106815
99700.005146986441105
99699.653603959479369
99699.313602827533032
99698.986954091960797
99698.669164342805743
99698.352833883705898
99698.031456665339647
99697.70442969672149
99697.378099685680354
99697.059522272480535
99696.74901713730651
99696.439463003858691
99696.124959678825689
99695.807078329191427
99695.491307012111065
99695.181676835185499
99694.877579411186161
99694.575633118176484
99694.273523371623014
99693.973142894377816
99693.677963172143791
99693.389778574797674
99693.10774559895799
99692.829733037287951
99692.55327293726441
99692.277687517140293
99692.003501333252643
99691.731795972737018
99691.46250112458074
99691.194378535379656
99690.92509336983494
99690.653360377909848
99690.379421540681506
99690.10499424135196
99689.831459246343002
99689.560824501168099
99689.29460069045308
99689.033342989569064
99688.777173199443496
99688.524510241230018
99688.2727689480962
99688.018901403775089
99687.761412447347539
99687.50138991267886
99687.241416432938422
99686.983798778805067
99686.728925861185417
99686.473203082350665
99686.213276412498089
99685.949771623825654
99685.687241064209957
99685.429641354465275
99685.176110589367454
99684.920984227690496
99684.657874759664992
99684.385227904378553
99684.107084108894924
99683.829314193048049
99683.556505357686547
99683.2901712662715
99683.029367087394348
99682.772293278132565
99682.517182705152663
99682.262986267844099
99682.009545773660648
99681.756681847720756
99681.503539786383044
99681.249804998224135
99680.996321042926866
99680.745676308724796
99680.500158972296049
99680.259400663722772
99680.020461194653763
99679.779246821650304
99679.532621261561872
99679.280100635049166
99679.024097963236272
99678.768180871382356
99678.514565983685316
99678.263043364437181
99678.01240484524169
99677.761211808814551
99677.510437137549161
99677.263712159066927
99677.024562465565396
99676.794040871289326
99676.570399044707301
99676.350146415934432
99676.130132847916684
99675.908539379684953
99675.684226438810583
99675.456440455338452
99675.225565390166594
99674.99283935893618
99674.760082110500662
99674.52897302461497
99674.300330697835307
99674.073819660959998
99673.848279687415925
99673.622097593732178
99673.393563914956758
99673.161997271759901
99672.928294921672205
99672.694524850972812
99672.463135700047133
99672.235943786479766
99672.013607703411253
99671.79586190279224
99671.582126100285677
99671.371779355453327
99671.164664368043304
99670.960913696297212
99670.760135316144442
99670.560914924921235
99670.360866955234087
99670.15719408604491
99669.94741688198701
99669.730528360159951
99669.507782700369717
99669.282251206459478
99669.057658502555569
99668.83645115638501
99668.618872456878307
99668.403568182329764
99668.189211451259325
99667.974811680032872
99667.760687029440305
99667.547635394323152
99667.336268045793986
99667.127023837078013
99666.91992041177582
99666.715066222343012
99659.416742007029825
99659.21613297642034
99659.016862988515641
99658.819639885929064
99658.624380800509243
99658.430347540794173
99658.236706432726351
99658.043339769166778
99657.850924748650868
99657.660495228163199
99657.473018645832781
99657.288706687410013
99657.106986297629192
99656.926738548034336
99656.746705744415522
99656.565917325846385
99656.383947760929004
99656.201090184753411
99656.017806592542911
99655.834689341776539
99655.652189689164516
99655.470482041986543
99655.289287871011766
99655.10806414434046
99654.926593036885606
99654.744862316918443
99654.562910829627072
99654.380478759208927
99654.197096256364603
99654.012300686808885
99653.825997854146408
99653.638479942033882
99653.450784418222611
99653.264444616928813
99653.080793985413038
99652.900441283418331
99652.723072766966652
99652.547633245194447
99652.372854328627
99652.19765974098118
99652.021512711595278
99651.844552560272859
99651.666953620064305
99651.488686154014431
99651.309228298676317
99651.127899929793784
99650.944082105197595
99650.757493780954974
99650.56850185059011
99650.378043159420486
99650.187520811668946
99649.998439395654714
99649.811970201786608
99649.628483066844638
99649.447452947104466
99649.267610539754969
99649.087480050890008
99648.905802897439571
99648.722086101217428
99648.536777657762286
99648.351075309081352
99648.166420450041187
99647.983987977306242
99647.804245838618954
99647.626859892436187
99647.450784923508763
99647.274610013322672
99647.09707745948981
99646.917226204343024
99646.734619459239184
99646.549349182605511
99646.361731561104534
99646.172128993901424
99645.98096008884022
99645.788554491053219
99645.595282602211228
99645.401636803595466
99645.208174599698395
99645.01536390761612
99644.823712271652767
99644.633568458244554
99644.445079280558275
99644.257895439150161
99644.071379362925654
99643.884759214226506
99643.697379923803965
99643.508870311372448
99643.319339886933449
99643.129173875320703
99642.938854733118205
99642.748990841006162
99642.560009949869709
99642.372134685225319
99642.185461740940809
99641.999894153908826
99641.815378178609535
99641.631932051241165
99641.449356936325785
99641.267190086917253
99641.084776014700765
99640.901270873888279
99640.715924722957425
99640.528330687535345
99640.338365294184769
99640.146266923373332
99639.95254514105909
99639.757999939116416
99639.563446783402469
99639.369520681619179
99639.176611360235256
99638.984866274797241
99638.794245685392525
99638.604674587535555
99638.416159242711728
99638.228640844012261
99638.041894506779499
99637.855620219415869
99637.669379129205481
99637.482942052040016
99637.296212662186008
99637.109242159320274
99636.922348508989671
99636.73598489772121
99636.550604920877959
99636.36652943752415
99636.183936901958077
99636.003000942975632
99635.823784227453871
99635.646242343180347
99635.470148200067342
99635.295078629496857
99635.120396610800526
99634.945317733261618
99634.768892696345574
99634.59003158818814
99634.407939866941888
99634.222187329927692
99634.032911185029661
99633.840826311556157
99633.646867735253181
99633.451972274473519
99633.256782968135667
99633.061548696467071
99632.866283640178153
99632.67087073357834
99632.475338466829271
99632.280024870953639
99632.085521067114314
99631.892602390755201
99631.702009199623717
99631.51414086544537
99631.328825860080542
99631.145528208187898
99630.963527295723907
99630.78210298337217
99630.60065476121963
99630.418767626222689
99630.236182508218917
99630.052602305368055
99629.867577250755858
99629.680485516379122
99629.490694687090581
99629.297780506356503
99629.101715032928041
99628.903000310834614
99628.702610190826817
99628.501861702796305
99628.302032748993952
99628.104082907986594
99627.908430766765377
99627.714942215752671
99627.523084359869245
99627.332140692757093
99627.141405332440627
99626.950369822545326
99626.758801250805845
99626.566650949447649
99626.373952598514734
99626.180797078748583
99625.987322168497485
99625.79360109573463
99625.599610908699105
99625.405325557629112
99625.210823320012423
99625.016170665534446
99624.821443626686232
99624.626738617531373
99624.432130034198053
99624.237673847441329
99624.043510177827557
99623.849770177432219
99623.656575824687025
99623.464045191169134
99623.272296299168374
99623.081432314225822
99622.891565380938118
99622.702791990712285
99622.515215329578496
99622.329024092774489
99622.144365482294234
99621.961335510539357
99621.780010180795216
99621.600437648638035
99621.422602621372789
99621.246334378083702
99621.071439035411458
99620.89772409388388
99620.725100699608447
99620.553581096493872
99620.383319241547724
99620.214594595236122
99620.047676653251983
99619.882760213629808
99619.719885126251029
99619.558957746616215
99619.399807233727188
99619.242232427102863
99619.086127060567378
99618.931537012438639
99618.77876973200182
99618.628422481400776
99618.481406233026064
99618.33867211107281
99618.201122225204017
99618.069542686120258
99617.944470245522098
99617.82628338620998
99617.715102613467025
99617.610812163693481
99617.513053780596238
99617.421356669103261
99617.335344298466225
99617.254696425967268
99617.179144078239915
99617.108586236368865
99617.043221262501902
99616.983474282911629
99616.929914625681704
99616.88316772057442
99616.843954951240448
99616.812981649520225
99616.791033007990336
99616.778938096002094
99616.77744314118172
99616.787208782159723
99616.808814570540562
99616.842786657580291
99616.88951145959436
99616.94932812701154
99617.02256688370835
99617.10960213940416
99617.210857359867077
99617.326792857857072
99617.457851924569695
99617.604516425752081
99617.767286374961259
99721.369296619406668
99722.345693390831002
99722.087501608708408
99721.888351794535993
99721.856951801251853
99721.83380806792411
99721.696930800520931
99721.478936875108047
99721.237670003276435