/*--------------------------------*- C++ -*----------------------------------*\
  =========                 |
  \\      /  F ield         | OpenFOAM: The Open Source CFD Toolbox
   \\    /   O peration     | Website:  https://openfoam.org
    \\  /    A nd           | Version:  12
     \\/     M anipulation  |
\*---------------------------------------------------------------------------*/
FoamFile
{
    format      ascii;
    class       volScalarField;
    location    "0.0145";
    object      rho;
}
// * * * * * * * * * * * * * * * * * * * * * * * * * * * * * * * * * * * * * //

dimensions      [1 -3 0 0 0 0 0];

internalField   nonuniform List<scalar> 
75962
(
1.1556114804996056034
1.1546306401135151276
1.1563452715704087836
1.1561823742160441952
1.156970606429840398
1.1573408765720238911
1.1568550309601837167
1.1568192540411064151
1.1571685102723088256
1.1575898710146277359
1.1575026795493841281
1.1570208718474095377
1.1571767737222302674
1.1578847695094922621
1.1579770140543199641
1.157344719927910548
1.156957074888096626
1.1571727661594637393
1.1575455816839110845
1.157820356401916273
1.1579742658844498493
1.1576602605401127288
1.1569262791824388437
1.1564578336152708804
1.1567542413195446294
1.1572020582826567647
1.1572876862717840218
1.1572706120729532309
1.157373390072836683
1.157547311124198286
1.1578961270069338951
1.1584438297492039016
1.1588904909390851383
1.1589221212494955626
1.1587292814314413825
1.158618473760214318
1.1585766660154408481
1.1584679751516340218
1.1582691771181026219
1.15811508062747337
1.1580881804522302758
1.1583071251778513933
1.1587808318386954021
1.1593899180727189613
1.159967010890546435
1.1603169386580307609
1.1603312644140324483
1.1601258373190272977
1.160024551979388141
1.160221816602588607
1.1605690069818981325
1.1608302900744613684
1.1609777349282057735
1.1610769432456227168
1.1611121665593293617
1.1610545115667141314
1.1608520185960709004
1.1604003237434570295
1.1597334106190910763
1.1590944831989882235
1.1588221311233000144
1.1591010024244310372
1.1598046560003734129
1.160528098640473571
1.1608962241132576576
1.1608682121407971621
1.160723632794345539
1.1607120589735648863
1.1608457607173785497
1.1609512265245796048
1.1609229897704376189
1.1608353275969336416
1.1608253939488193396
1.1609111110927932131
1.1608913724590703698
1.1605485182168429059
1.159894947921408237
1.1592098308151899122
1.1588061513936231961
1.1588147729989268786
1.1591469934681881693
1.1596349089880793048
1.1600775349891814248
1.1602801650122314125
1.1601533300723754216
1.1598009785851954856
1.1594908675901822726
1.159407616161331589
1.1595172957777366562
1.1596779591235046869
1.1598248907238268846
1.1599703514825694395
1.1600649809855281269
1.1599814754937796124
1.159654171073593476
1.1591878585177510796
1.1587923504088162296
1.1586237700238346537
1.1586919840679781313
1.1589012330730195099
1.1591456647622924159
1.1593645350335211042
1.1595539902669613763
1.1597548802274442181
1.1599740164139031862
1.1601488479663575326
1.1601997701280062358
1.1601555364587607944
1.1601462365935388821
1.1602902515597361965
1.1605752238298565615
1.1608558060686213764
1.1610233262219891159
1.1610642700866182775
1.1610537176175614871
1.1610392734906274104
1.1610038915338525278
1.1608958782296343593
1.160693663202637449
1.1604340087558708827
1.1601927923925665631
1.160042879302481067
1.1600353554723001892
1.1601435968729905124
1.16028737914450919
1.1603803752202601629
1.1604093626336604572
1.1604335321193650632
1.1605407195176107304
1.1607913853307776364
1.1611494285201395815
1.1614839157805185721
1.1616501708461071107
1.1615736878936293586
1.1613067719250282916
1.1609917716537614396
1.1607858777941248984
1.1607415619609344759
1.1607770542603623731
1.1607426508055402881
1.1605345184272093384
1.1601677198943056712
1.1597520361655146992
1.1594053215127819723
1.1591952954256969921
1.1591325658828508516
1.1592094891188751138
1.159409432413402774
1.1597010448524969206
1.1600097306336512037
1.1602490467907360383
1.1603686150176957259
1.1603775713556343518
1.1603360954501067415
1.1603014429337390467
1.160300531571460958
1.160314914095791794
1.1603153815921842806
1.1602836436833161571
1.160219816551337102
1.1601362783336794937
1.1600373356080326825
1.1599115305062819292
1.159749971859816986
1.1595587623604097782
1.1593593614334198882
1.1591832132076524964
1.1590523299125787826
1.1589778206788226012
1.1589573770289058885
1.1589923560804618052
1.1590848336239663041
1.1592229579982407106
1.1593946474368488353
1.1595846020914997165
1.1597761375308726084
1.1599436958242947959
1.1600634001733733935
1.1601151010908823391
1.1600874947053769759
1.1599769836734741268
1.1597885436973298656
1.1595374632577180041
1.1592522595011567343
1.1589591559271417154
1.158686033431676643
1.1584570526082058617
1.1582868572520967909
1.1575621625813523607
1.1575493580685543016
1.1575844314782710587
1.157674421946917942
1.1577891192745841664
1.1578730732580926333
1.1578742938699979614
1.1577678428405009381
1.1575701445442647675
1.1573283522875863483
1.1570948569884760282
1.1569056687535645978
1.1567726619331790694
1.1566914107619277186
1.1566546905917309829
1.1566581964343667366
1.1567000260518780497
1.1567708339629636516
1.1568526407871511097
1.1569236156632565216
1.156966845234766339
1.156976659612948044
1.1569616542299714368
1.1569386303045039455
1.1569293198799706079
1.1569548958334112676
1.1570303967890953611
1.1571529798048911797
1.1573043095455737284
1.1574380621462849739
1.1574972675740939909
1.1574353879945846746
1.1572305345529871889
1.1569005513362851101
1.1565020332938897862
1.1561094956963853253
1.1557917336906013972
1.1555918880682227723
1.1555199033616472271
1.1555562169171591513
1.1556626225169166489
1.1558000175039759849
1.1559381171063252136
1.1560598552500194192
1.1561597235134155603
1.1562352076825068714
1.1562840729693366626
1.1563007385959211959
1.1562818369899339199
1.1562251710026389961
1.1561395415159969602
1.156042669637141973
1.1559580008409204854
1.1559093760082119751
1.1559085855092841033
1.1559495721489279063
1.1560019192144497246
1.1560208100998667913
1.155964928689461324
1.1558113454935650122
1.1555693361023191557
1.1552802667313533114
1.1550014542435722564
1.1547857930648788294
1.1546667690972038933
1.1546513980605297434
1.1547235459229030496
1.1548555259030319764
1.1550179839215992672
1.1551857797376587911
1.1553381795559567458
1.1554552368018020658
1.1555178722529180213
1.155511962932080694
1.1554357957485237307
1.1553034371530603863
1.1551431284618933759
1.1549873144922544466
1.1548661080942013157
1.1547950749662942993
1.1547777292542618088
1.1548013138339698891
1.1548501607631302956
1.1549044445050087315
1.1549461200237378655
1.1549628354728584956
1.1549437134370923452
1.1548837831487377414
1.1547820362180494236
1.1546455414601521916
1.1544890186828977718
1.1543299693367938819
1.1541852958100444759
1.1540689115451814306
1.1539853863074109874
1.153932355638045637
1.1539037573342549869
1.1538955182593246818
1.1539044678138763445
1.1539289167763027155
1.1539656557035542495
1.1540102236308269479
1.1540542682978032207
1.1540918041871166544
1.1541254553376909531
1.1541639661940215067
1.1542199271696724772
1.1543036533212238659
1.1544161357423252667
1.1545488162552595135
1.1546822460062380333
1.1547923712581338318
1.1548582163935114941
1.1548670787273194183
1.1548140361015331035
1.1547055457531032463
1.1545495841247044311
1.1543618583701362734
1.1541588975962433494
1.1539558897737323129
1.1537676617214573938
1.1536048412026440602
1.1534712428055500233
1.1533625390036774672
1.1532648550326787262
1.1531593162308599876
1.1530275696238947436
1.1528617683582695896
1.1526688649998073632
1.1524719838651695802
1.1523074429115141015
1.1522162221661111925
1.1522307111504173083
1.1523645946585554523
1.1526053082846332565
1.1529128054076844823
1.1532331834283169325
1.1535107339112598002
1.1537054773258610396
1.1538005367307206939
1.1538011254993629784
1.1537282754536342111
1.1536046788479521474
1.1534476790352161668
1.1532631317558208472
1.1530510384291261516
1.1528097356461379785
1.1525429509205158407
1.1522635398009524188
1.1519913656629006127
1.1517468065741098826
1.1515435248531606938
1.1513841709367762522
1.1512598673938305716
1.1511576030285939343
1.1510676989712826934
1.1509869997987134393
1.1509286963474316678
1.1509126723185851837
1.1509580448680660769
1.1510747520401607424
1.1512569504576930512
1.1514808215432470462
1.1517093786769112551
1.1519032956585451011
1.1520320789897091629
1.1520807994867814372
1.1520510042824545494
1.1519583530924195625
1.1518246672793475138
1.1516719176133922709
1.1515167988435353053
1.1513710453736549777
1.1512415608195463168
1.1511310568498689388
1.1510391600493907749
1.1509638031366318245
1.1509010302631494937
1.150844547045857702
1.1507839247646067804
1.1507097498968428262
1.150613515720730673
1.1504906290746585995
1.1503438132126904136
1.1501815775215458171
1.1500158458256037886
1.1498595108865716785
1.1497222277681333757
1.149609337077627691
1.1495216517775588283
1.1494550510419436762
1.1494038096088905476
1.1493617679721275238
1.1493237180747564175
1.1492871716960384454
1.1492518369588986538
1.1492189927012732564
1.1491900854171581692
1.1491666193165315235
1.1491498390238570337
1.1491418966297146653
1.1491454597137056304
1.1491640734098695908
1.1491994753511798333
1.1492509506671158004
1.1493139271634371656
1.1493780974509952841
1.1494310585346407816
1.1494604188476122975
1.1494590824114438998
1.1494262929379193139
1.1493688004147641912
1.1492985172449268205
1.1492296543265301256
1.1491729654174833719
1.1491315894742202275
1.1491015948143015191
1.1490721390754454756
1.1490304657576351222
1.1489646332599252609
1.1488694752012886813
1.1487477909695578138
1.1486084254394584026
1.1484651943431745114
1.1483342710838553291
1.1482317673811117675
1.1481686648333082612
1.1481517726198555707
1.1481824742698256703
1.1482567437697439594
1.1483676820869921364
1.1485057665270739236
1.1486612915314251548
1.1488224928475858633
1.1489794839826812378
1.1491205573690319586
1.1492348990145997423
1.1493132843488582662
1.1493472472191983424
1.1493333122342401786
1.1492715354443137077
1.1491675833987220479
1.1490311562504633702
1.1488752829696775581
1.1487127127423755191
1.1485552543345489696
1.1484122605940743078
1.1482886749756702205
1.1481885396651769771
1.1481118937733292285
1.1480578180904481567
1.1480258776595786419
1.1480136409870800307
1.1480159941102316967
1.1579501182248783664
1.1583016827269307925
1.1581971911806823172
1.1577670949524836441
1.1567722654081338263
1.1548857511611174687
1.1543393795378689148
1.1553308182059127684
1.1564167752178260429
1.1575227099157965327
1.1580919472641622026
1.157852099957170644
1.1578388304205897708
1.158373872461243792
1.1583855306190131707
1.1576119551365053884
1.1572674901335857633
1.1576776288938805948
1.1580378560937172328
1.1581943010905688674
1.158326121085182292
1.1580003027613945399
1.1571436057715951407
1.1565550306139775749
1.1568371851397354355
1.1573558827013599171
1.1574210134742992651
1.1572513074273071965
1.1571850303276172145
1.1572647214830362739
1.1576470069843332045
1.1583676675593561622
1.159026768631664428
1.1592840970806643774
1.1592547343715813302
1.1592190048527404311
1.1591210462897956202
1.1588818568617722526
1.1585788628855462346
1.1582972708304299925
1.158097858682109571
1.1581534454154844838
1.1585764284364792331
1.1593165648083250119
1.1600736444824237825
1.160503007685114385
1.1605157245324249082
1.1603175724208101283
1.1601790038416597284
1.1602093299695654949
1.1603219802410840167
1.1604141460465624558
1.1605220195830476815
1.1606510815753059429
1.16077360580552158
1.1608487881409850218
1.1607804744647167716
1.160449068175022358
1.1598617177821048951
1.1592796547952566311
1.159043492243064577
1.1593137535868427435
1.1599862523196111663
1.1607232834805396582
1.161155075311398166
1.1611700368566708619
1.1609924828385826956
1.160914830960848132
1.1610083431098037199
1.1611197545767146799
1.1611049129551185288
1.1610088698056622025
1.1609726959473491981
1.1610274820575725574
1.1610075780350492813
1.1607116738254268373
1.1601322861117975282
1.1595152696135655468
1.1591392726727589579
1.1591318649824864373
1.159425132145232018
1.1598509818696098872
1.1602279660291368035
1.1603961332817243068
1.1603045584557125647
1.1600458360221566068
1.1598256819749039881
1.1597598116794716194
1.1598240030705613268
1.1599364804045102506
1.1600552746583976393
1.1601817593369010417
1.1602626791972854292
1.1601981314596541139
1.1599402727794791979
1.1595726678168378765
1.1592526863234415835
1.1591106306408456295
1.1591766183193905615
1.1593754153318038824
1.1595834382462992806
1.1597134018938193289
1.1597774987635112165
1.1598661947712882725
1.1600395539974519554
1.1602442665606860217
1.1603526293274872838
1.1603422448689613145
1.1603379874387398374
1.1604920098379269966
1.1608424178403606852
1.1612545274425396524
1.1615453646147650968
1.1616251598358768859
1.1615347137110167974
1.1613413752073962204
1.1611103256052781596
1.160877933287421282
1.1606595444035465725
1.1604735567248112282
1.1603419289660088509
1.1602851024304265959
1.1603242474468071777
1.160430056104697627
1.1605328047491485499
1.1605494865115808523
1.1604740123998660284
1.1603940702831854193
1.1604244446457343543
1.1606421152576180678
1.161014137473686203
1.1613971223363328544
1.161626228585742604
1.1616090839820953917
1.1613875086177001261
1.1611098177487819694
1.16093257775207781
1.160904803415689468
1.1609483289115216653
1.1609140066757939191
1.1606992234452955248
1.1603305359659716878
1.1599285518863595712
1.1596166397685665483
1.1594514271473859157
1.1594428427716267915
1.1595622696468539381
1.159782800761361532
1.1600558455790763723
1.1602957458774219024
1.1604269022270863321
1.1604221408317636488
1.1603223191006317716
1.1602002870671392909
1.1601232521261215513
1.1601138108279540617
1.1601538088228338097
1.1602050446724612165
1.1602301619251755849
1.1601984913630785101
1.1601033263251230299
1.1599523597258971641
1.1597666833180444446
1.1595729210454177593
1.1593848185783577343
1.1592242668203169842
1.1590905694050201991
1.158984288954036046
1.1589100734091803968
1.1588781578810802841
1.1589109155091295023
1.1590285732562550791
1.1592327114892790885
1.159497335745702129
1.1597680776915715306
1.1599818736123430618
1.1600893409630088637
1.1600767574017984973
1.1599713943408995753
1.1598207626587822006
1.1596646853233405494
1.1595062901389361354
1.1593385760710119836
1.1591523768098521696
1.1589530159054373115
1.1587578823689221874
1.1585835811419229469
1.1584372904533588589
1.1583171906511608995
1.1578926150657449234
1.1578418645872139425
1.1577951070086935914
1.1577779770760228129
1.1578047372113156044
1.1578583972478178055
1.1578963253433254277
1.1578705959274306903
1.1577532222037996146
1.1575528707335092093
1.157314338702875478
1.1570912031336766379
1.1569214540798580249
1.1568206609145852415
1.1567859221406382453
1.1568058981343443126
1.156865103359843383
1.1569466718037868525
1.1570345923745781747
1.1571143327600217354
1.1571689194833867376
1.1571935731057330088
1.1571877967965444878
1.1571558528276131295
1.157108241342444277
1.1570616789304277727
1.1570397894915298576
1.1570698284772120701
1.1571617621495287054
1.1573032691726607979
1.1574497499162337277
1.1575430585173624998
1.1575262291412871107
1.1573725960187626338
1.157097999596157889
1.1567549482291659135
1.1564122687030709002
1.1561304849253859484
1.1559450716988750596
1.1558616896542359687
1.1558639828872081523
1.1559246817469450708
1.1560187766067113735
1.1561299841278147582
1.1562467580812658685
1.1563586315599927445
1.1564519892042008919
1.1565128973206111329
1.1565250353427547481
1.1564795463494896843
1.1563783029486418563
1.1562369846086097969
1.1560859871006132771
1.1559633118218699543
1.1559020394602106396
1.1559184167040539304
1.1559992375198111514
1.156103292453050102
1.1561726601093533784
1.1561518279710194523
1.1560099674479829002
1.1557534965100966229
1.1554260223194245949
1.1550931148120500147
1.154819635549293011
1.1546515876178333748
1.1546051914584805065
1.1546713892720281702
1.1548186620335931796
1.1550067539119210913
1.1552009160001102117
1.1553699862999942116
1.1554923940993908626
1.155550333412419528
1.1555397040363453165
1.1554626730176895677
1.1553352692836580395
1.155178143412247227
1.1550136941357991294
1.1548640403822154621
1.1547496268648935747
1.1546814204835920137
1.1546641652578020221
1.1546914892994155633
1.1547496720997794117
1.1548183968127236909
1.1548723792290602752
1.1548882483844404856
1.1548496000729564503
1.1547530677512571895
1.1546070742635285988
1.1544307519965710807
1.1542483084120875869
1.1540826086400799433
1.1539510861960402544
1.153859981896577569
1.1538070047238857541
1.1537870783551309462
1.1537945535910618666
1.1538250400381773186
1.1538744510260561249
1.1539376973644950297
1.1540094950533237306
1.1540813271536978224
1.1541471922192181321
1.1542074283154455383
1.154268477058293163
1.1543407867184671822
1.1544323936205422854
1.1545435678185016481
1.1546645067939127483
1.1547755211966128641
1.1548549454725802743
1.1548855241507505198
1.1548590871022565985
1.1547779699143514431
1.1546490622645564361
1.1544855130059388237
1.1543037709415939762
1.1541168312239438176
1.1539370832505295716
1.1537751211809492702
1.1536353012033981891
1.153518919162326517
1.1534203204471533688
1.1533255521980316782
1.1532171045173615909
1.1530816698662555986
1.1529141959136668394
1.1527252909520193658
1.1525396041447635298
1.1523924706799708595
1.1523204356193652576
1.1523496677803755084
1.1524882266271903042
1.1527191550162729783
1.1530039952215875854
1.1532931495521601128
1.1535397945529979324
1.1537128566555165943
1.1537999396120610651
1.1538067612309896859
1.1537484307768230973
1.15364084245233256
1.1534920118272409262
1.1533035708305670042
1.1530734990648057181
1.1528049284641754824
1.1525092548626680866
1.1522080856223722023
1.1519278671857611229
1.1516913009793443567
1.1515085547587593506
1.1513757376408884081
1.1512777507485278949
1.1511932739111010449
1.1511048444532436807
1.1510146109625480904
1.1509356037956663954
1.1508940420575535235
1.1509153053799414668
1.1510115157536586761
1.1511755419158640201
1.1513825679775737676
1.1515939982272427322
1.1517698552304049819
1.1518812400890559022
1.1519165223995877501
1.1518819073726955793
1.1517950806110246464
1.151677162499978424
1.1515474454839456087
1.1514184987945519367
1.1512960658863511387
1.1511826528455693097
1.1510791766845267503
1.150985811671143999
1.1509030779229378894
1.1508287716753198282
1.1507612118108254684
1.1506943875345856387
1.1506205372759343852
1.1505316511615495401
1.1504231215747777739
1.1502966045483196122
1.1501570870630726251
1.1500136259756763568
1.1498752275787063049
1.1497508326017411573
1.1496452201931783854
1.1495598966268711916
1.1494941817210235779
1.149445512521540147
1.1494108527613986492
1.1493862193728165977
1.149367135874320045
1.1493491789183245544
1.1493287432001721982
1.1493025454190362034
1.1492694269565038034
1.1492315374299129083
1.1491931555445034085
1.149162139801276572
1.1491469353351715377
1.1491528914271669226
1.1491803066098973396
1.149224609372918815
1.1492751845750004414
1.1493171360738638764
1.149338216880553265
1.1493302699518099796
1.1492940270474554243
1.1492381815308856385
1.1491754862467553622
1.1491217988527824279
1.1490880247657824231
1.1490778745340604061
1.1490849668796792038
1.1490953093153510878
1.1490915069555049932
1.1490592692345318326
1.1489893896584224553
1.1488810238805819974
1.1487419544576060737
1.1485871194362795578
1.1484357642026044033
1.1483063418772281317
1.1482147187352578221
1.1481713957698764794
1.1481808009334004694
1.1482410907434832392
1.1483450494371554296
1.1484810449290130396
1.1486359855089141035
1.148796863650315192
1.1489512622278346132
1.1490881905686094466
1.1491963327129282035
1.1492670411472580838
1.1492946437368827262
1.1492755991192455944
1.1492121378096848971
1.149110138098925038
1.1489802358952214689
1.1488353273174065627
1.148688670846985671
1.1485518881376046707
1.1484320623389712157
1.1483350163657666254
1.148261955888775887
1.148212517007135558
1.1481867427379859325
1.148181863741821962
1.1481937731424212146
1.1482182626393466762
1.158336071713686799
1.159538592935092538
1.1584857193252042773
1.1571821707210474539
1.1557152187907500096
1.1550766860771151112
1.1558205687587264077
1.1562793866820098021
1.1566084982501012579
1.1579291005087568589
1.159077827811964001
1.1588267732095833829
1.1581821352219072718
1.1581898110308832539
1.1582819735926390692
1.1579968950816899032
1.158122764888061651
1.1586724689408272049
1.1587876207263301254
1.1584031293928653827
1.1582523143616847427
1.1582248243299779755
1.1576886107806629855
1.1571183630349550775
1.1573148292317196884
1.1578222865807781261
1.1577892973290488943
1.1573511327151968509
1.1570819493100290565
1.1572057399628599139
1.1577047411363361462
1.158501999930094728
1.1592750631578867537
1.1597324144336778051
1.1598694765552985952
1.1597967396882005175
1.1595341220679944438
1.159167445462471413
1.1587800165180071055
1.1584053041059829692
1.1581071678620842302
1.1580633895426111213
1.1584296623733292275
1.1592015654139313785
1.1600366803764941004
1.1605481467130052131
1.1606432040572411957
1.1604874754399190362
1.1602416239495842998
1.1599962985881238087
1.1598233386583065574
1.1598143824383879696
1.1599866625700818723
1.1602478232976198846
1.1604780250859438873
1.1606091517307113303
1.1605953142338518713
1.160364035776441094
1.159925752927958964
1.1594761337750361108
1.1592751529788367648
1.1594894980455727751
1.16007843870854499
1.1608007184832873637
1.1612994378393997064
1.1613656267932022104
1.1611150753912133915
1.1608909107592471077
1.1608968194640918448
1.1610457253820971601
1.1611317177134095058
1.1610796889701617829
1.1609928890509906285
1.1609433410143357168
1.1608812537740862414
1.1606975548695128708
1.1603564936422336995
1.1599794073886642298
1.1597342118389881716
1.1597184046643662647
1.1599146921754921458
1.1602059123867263235
1.1604404182850105443
1.1605102660210580012
1.1603915358936709445
1.1601740946928476017
1.159982961729673967
1.1599094338611568578
1.1599812342440189994
1.1601540186232852658
1.1603557299378031153
1.1605265137371691964
1.1605822471973936683
1.1604996207581166345
1.1602907182761938998
1.1600306255639956099
1.1598225132768944512
1.1597476110293916118
1.1598343876460026625
1.1600183301683892889
1.1601827456439686159
1.160225142751649674
1.1601711640744460929
1.1601464418037072956
1.1602559799151148656
1.16045305666274845
1.1605925001288281972
1.160599399158978251
1.1605781555465335408
1.1607254919145513217
1.1611146354398815816
1.1616130755173452727
1.1619612915857269186
1.162021717866537962
1.1618127987286848146
1.1614693063350192137
1.1611398874474683218
1.1609074644623451622
1.1607873775813000172
1.1607517831324614122
1.1607504797023484588
1.1607669400707276708
1.1608101635768457438
1.16088194155567348
1.1609304436903848945
1.1609001406182686278
1.1607673856750573282
1.160609953553897622
1.1605483079909495459
1.1606583400493157843
1.1609239881648434345
1.1612384362090426571
1.1614666817370531415
1.161520169338350561
1.1614125880400651969
1.1612564038328851979
1.1611576934694882723
1.1611559507529916058
1.1611841039903370021
1.1611249522487196995
1.160906157574224995
1.1605687449639074948
1.1602262909024303461
1.1599778328473344668
1.1598710139034675848
1.1598910065836436356
1.1600017251213325942
1.1601747293210682432
1.1603599883641513291
1.1604919613942825674
1.1605275125410747794
1.1604492947635238753
1.160295195095595977
1.1601316254374669512
1.160017368578834418
1.1599828086832641993
1.1600306301471088322
1.1601286994649897544
1.1602203841581417709
1.1602337755501404004
1.1601288078734663944
1.1599207393202741745
1.1596627417312295183
1.1594171803127353293
1.1592238562895358367
1.1590895037269359769
1.1589842849243650047
1.1588897394720321099
1.1588037420864270022
1.15875502318590895
1.158791460917911742
1.1589529991123399544
1.1592424950454551791
1.1596063818589699146
1.1599420719786581735
1.1601467268013900824
1.1601632092617200076
1.1600043967654165566
1.1597467336871163379
1.1594911532348317618
1.1593031634478858649
1.1591979299329790987
1.1591347149725530485
1.1590745283647601038
1.1589991681079139241
1.1589027870904666795
1.1587856303610839515
1.1586442387941502385
1.1584732133532791298
1.1582316854571643727
1.1581680732321175675
1.1580694777320721389
1.1579731769861520974
1.1579127807753943902
1.1578990281726626588
1.1579074774907260892
1.1578892514752829879
1.1578034340310239259
1.1576421018145572894
1.1574306818369251015
1.1572146220130452576
1.157039529355836649
1.1569339596112979685
1.1569098448663193146
1.1569572604626003898
1.1570523007071427113
1.1571624323914504462
1.1572616241717423868
1.1573312450724084766
1.1573704097220927078
1.1573832392691554283
1.1573772965021693615
1.1573557655319774984
1.1573216556952363732
1.1572871906053558977
1.1572741117432092661
1.1573100101319442334
1.1574065001400826169
1.157544900900790541
1.1576817278227145014
1.1577520418045452733
1.1577031589644408704
1.1575209102377088666
1.1572310691981260167
1.1568905704060015172
1.156567611673836371
1.1563162363757519824
1.1561609111351234258
1.1560956790918144321
1.1561000838294124282
1.1561483338652822628
1.1562229198641624794
1.1563164901592846157
1.1564224122839052988
1.1565294669778050096
1.1566185121756578091
1.1566690700302251216
1.1566602959315257504
1.1565863011671537741
1.1564560184561638589
1.1562940161425276919
1.1561377118331481739
1.1560259830439649775
1.1559880637589707852
1.1560304680394353216
1.1561281773141585116
1.156232771355682809
1.156282095449457481
1.1562229788129039232
1.1560334131281764236
1.1557307532052749632
1.1553682976494024093
1.155018160507271352
1.154748031187462054
1.1546041902817103519
1.1545986331425011073
1.1547104040297073713
1.1549001854154863356
1.1551189991354102737
1.1553212252524038828
1.1554758447717961012
1.1555632151895807169
1.1555808644693725817
1.1555337814568193977
1.1554345007709143633
1.1553006159279763931
1.1551430513282794355
1.1549761586277424996
1.1548158680456914738
1.1546803061445891636
1.154586996222034756
1.1545475253764474477
1.154561953625204529
1.1546185624319611485
1.1546919973305005414
1.154751144651698036
1.1547664632729226497
1.1547217881167912701
1.1546161588428192069
1.1544654493376522719
1.1542929887161685887
1.1541248411408979724
1.153980165289860027
1.1538666423133263628
1.1537857652182239576
1.1537331145554752254
1.1537029674087491138
1.1536938123707209947
1.153705617545232931
1.1537410823650169345
1.1538035953302914205
1.1538912951947106755
1.1539994369450079503
1.1541197621284211561
1.1542452860839749196
1.1543738315835034847
1.1545044431815860708
1.1546327364691584272
1.1547503523431079664
1.1548421576653555842
1.1548939891433105398
1.1548922537025116952
1.1548339960883033939
1.1547244037946673423
1.1545780442081530204
1.1544131377561306362
1.1542461622231361407
1.1540901273316888087
1.1539546682790864374
1.1538409980286457035
1.153745024580055123
1.1536622277021104654
1.1535861012745849408
1.1535074626479355775
1.1534159690754215433
1.1533010348989927163
1.153157274992833603
1.1529877269734745138
1.1528073844282598071
1.1526427124615032938
1.1525267181940508365
1.1524905794193742725
1.1525531001717332913
1.1527136456143476373
1.1529488461630386098
1.1532176320718883211
1.1534729303127182476
1.1536731565709561487
1.1537929016454435693
1.1538264232086279382
1.1537851811521284695
1.1536878266609824628
1.1535512541101751172
1.1533836136522250815
1.1531879240695599442
1.1529617841666386369
1.1527075105047541737
1.1524360802672672932
1.1521659766815199877
1.1519181073717359443
1.1517075936095668709
1.1515393024703342029
1.1514076779034283504
1.1512978612718158811
1.1511903293999077302
1.1510771914895618906
1.1509622222388711243
1.1508686002859476183
1.1508203678143844595
1.1508418350204456804
1.1509427941589518429
1.1511108509116037002
1.1513155933711758383
1.1515164510272339893
1.1516746295943316447
1.1517643069654610599
1.1517780146678295861
1.1517272281544472801
1.1516338803286230164
1.1515213584626902144
1.1514091151366925292
1.1513085759853323164
1.1512211826619647148
1.1511426557359076828
1.1510692562629003532
1.1509977443242926931
1.1509251990167492785
1.150851398537430903
1.1507741122883741181
1.1506907849191998494
1.150597641369744073
1.1504923117682959166
1.150374580056299445
1.1502454324140241049
1.1501109533217666048
1.149978819880860037
1.1498572555591775046
1.1497512995994456642
1.149663436815923756
1.1495940394592203404
1.1495416296153520008
1.1495048720096352479
1.1494809925695985697
1.1494669378198045795
1.1494587287730766434
1.149450220876173212
1.1494351179854769285
1.1494083194206461407
1.1493672337441225295
1.1493138709261583319
1.1492545772908175916
1.1491980131396319909
1.1491539981034681883
1.1491301991113886949
1.1491286087110823555
1.1491448099098962032
1.1491701091517352307
1.1491911465565942674
1.1491970491571912305
1.1491811624172545425
1.1491454091717470121
1.1490963772257314357
1.1490482434861417627
1.1490145225781323024
1.1490048939875838752
1.1490219899484608312
1.1490590760236407686
1.1491032283434936545
1.1491356437127802081
1.1491395166392861515
1.1491028345425278179
1.1490213619058471384
1.1489009889695211974
1.1487548109523486595
1.1486009787429793949
1.1484597677489467582
1.1483497549055119435
1.14828474180527218
1.1482712912556245488
1.1483104570669742106
1.1483957472122423571
1.148515688684560887
1.1486558266193085398
1.1488012583914826159
1.1489375618324459971
1.1490543470467800002
1.1491422041097671958
1.1491940922436065797
1.1492060042031007061
1.1491779675654172355
1.1491135495397448718
1.1490198174045571644
1.1489064258156611587
1.1487846435237281106
1.148665686877115899
1.1485588177775469809
1.1484706448675319201
1.1484040661884720169
1.1483605028135388526
1.1483387011386236853
1.1483364511615621328
1.1483509600480303892
1.148378911517176526
1.148416726127976295
1.1484585355285861219
1.1565887598413757686
1.1557731231517480719
1.1576596962259375623
1.158020103121384814
1.1561248793031599913
1.155117205945657366
1.1555320911995532462
1.1557648474622017609