/*--------------------------------*- C++ -*----------------------------------*\
  =========                 |
  \\      /  F ield         | OpenFOAM: The Open Source CFD Toolbox
   \\    /   O peration     | Website:  https://openfoam.org
    \\  /    A nd           | Version:  12
     \\/     M anipulation  |
\*---------------------------------------------------------------------------*/
FoamFile
{
    format      ascii;
    class       volScalarField;
    location    "0.0145";
    object      rho_0;
}
// * * * * * * * * * * * * * * * * * * * * * * * * * * * * * * * * * * * * * //

dimensions      [1 -3 0 0 0 0 0];

internalField   nonuniform List<scalar> 
75962
(
1.1554654564116009219
1.1546642071378734329
1.1563815978969940179
1.1562011992466465493
1.1570188983563816087
1.1573539246527337898
1.1568543283365058105
1.1568186231549546505
1.1571639210401427622
1.1575803796116526101
1.1574891517084751058
1.1570269563989927786
1.1572129353725411072
1.1579153534556003713
1.15797257830635969
1.1573218626594354852
1.1569483205718293917
1.1571814971990310728
1.1575639007004177028
1.1578431272843610067
1.157988000865309397
1.1576494199229723225
1.1569017595901405215
1.156444158383677312
1.1567543630267911325
1.1571997242675295947
1.1572838472020603451
1.1572735401380931375
1.1573808730619439267
1.1575569196189217092
1.1579112438487186854
1.158460446378603681
1.1588963855079765786
1.15891778710765192
1.1587261628536009717
1.158622863784953827
1.1585846575555132087
1.1584746600212629808
1.1582732899442340635
1.1581182864070311833
1.1580930514665335185
1.1583168313033758157
1.1587948992760430666
1.1594050167153069353
1.1599780554974219449
1.1603194358477659787
1.1603267107075465603
1.1601227295008740281
1.1600315424264084907
1.1602371924319343499
1.1605826543696937669
1.1608355748879750635
1.1609765529415079222
1.1610732442896833927
1.1611082024347079145
1.1610513413880867439
1.1608470413693905421
1.1603895003048878554
1.1597180773292381506
1.1590822938326987845
1.1588211865402180401
1.1591131345732688107
1.1598223838175436562
1.1605397831507255901
1.1608972972959699099
1.160864210645506267
1.160723678201814435
1.1607191005452646149
1.1608537693368143895
1.1609534733083584079
1.1609192358741169393
1.1608307058303657389
1.1608248382465180537
1.1609130297676204524
1.1608882267219129414
1.1605354732205181989
1.1598756299363965905
1.1591929781245329245
1.1587981603623207505
1.1588166076994896869
1.1591557316232585784
1.1596463243661345732
1.160086879280443739
1.1602833729991954836
1.1601503727645046116
1.1597967448094377296
1.1594911311106663732
1.1594124405380894505
1.1595214970339464688
1.1596777997274889671
1.1598219340016042711
1.1599666422778103225
1.1600597109093957471
1.1599722356532413681
1.1596417214323495593
1.1591767532979961874
1.1587875572512549294
1.1586269350386191324
1.1587006957978807087
1.1589120083467849831
1.1591562113939224421
1.1593743612339899585
1.1595641247358918768
1.1597659588924265073
1.1599842907050079699
1.1601550694466504776
1.1602002067960712761
1.1601530104531618814
1.1601462382732556922
1.1602952935010708568
1.1605833419221081027
1.1608629347998031811
1.1610277191480085079
1.161067098831190636
1.1610569594220983003
1.1610425956032011108
1.1610051662556482022
1.1608932461927876645
1.1606873287791636962
1.1604260258864287358
1.1601861226960989981
1.1600401150994084087
1.1600370568572422325
1.1601478139156582436
1.1602907391533479053
1.1603808669658079999
1.1604077355786119874
1.1604327533984493126
1.1605441306386918843
1.1607998842759306157
1.1611603396503626939
1.1614923162166919113
1.1616520472071689696
1.16156853816498562
1.161297854932047402
1.1609845601860038222
1.1607838748237784277
1.1607437826869462238
1.1607786181932402414
1.1607386532483390251
1.1605235094072126056
1.1601524009346848576
1.1597369769320218236
1.159394444102726407
1.159189910726924122
1.1591326382923063942
1.1592142959768043653
1.1594178343164300848
1.1597109733866912684
1.1600179902218630268
1.1602531442615839907
1.1603683141947362945
1.1603746716171057241
1.1603333310843639836
1.1603004856757290764
1.1603015291632241546
1.1603169071336438822
1.1603173943864841799
1.1602854413574421599
1.1602214983816718785
1.1601377791490130598
1.1600379133300597889
1.1599103682997038423
1.1597466049897386942
1.1595536607458807321
1.1593535828289736056
1.1591780212411793016
1.1590482975684786027
1.1589750586966494073
1.1589557411016961908
1.1589918924583852977
1.1590855385210048212
1.1592246652847926214
1.1593975170927077745
1.1595886342584160733
1.1597810916327966346
1.1599488965871451729
1.160067878827593324
1.1601178541441237169
1.1600876805835358407
1.1599740898317036919
1.1597823345269555606
1.1595287043762900758
1.1592421369963299416
1.1589491677102128353
1.1586777805298669186
1.1584516036103194025
1.1582845711552594015
1.1575632068728651802
1.1575512580744302671
1.1575879059332241372
1.1576791931114045475
1.1577935801267351668
1.157875300710256683
1.157872999069501363
1.1577630982543027915
1.1575633787608037295
1.1573214943990262071
1.1570893145171712302
1.1569018447788284032
1.1567700634663533599
1.1566892740145111595
1.1566526322867178855
1.1566563444361133151
1.1566987448810808203
1.1567703645177349614
1.1568528627398093622
1.1569242803235955108
1.1569677459128373531
1.15697774166109979
1.1569628544036838491
1.1569399648981768536
1.1569309556651961035
1.1569571228026795939
1.1570334914369524437
1.1571569321155543708
1.1573085736437120907
1.1574414165950057676
1.1574983223379760044
1.1574331509565782827
1.1572248952623758189
1.1568926325194253124
1.1564938850452233243
1.1561032023545563252
1.1557887335370071735
1.1555926274642849272
1.1555236586225632323
1.1555616887837061313
1.1556685522717149439
1.1558055942476483935
1.1559431320890396488
1.1560645174494013077
1.1561643334782873982
1.1562398690162261072
1.1562883567957600306
1.1563040390288967796
1.1562834906108436783
1.1562246938058646784
1.1561371317285220606
1.1560391433574892517
1.1559544690325755933
1.1559071801187339457
1.1559084891805859741
1.1559515419126269453
1.1560049621519279395
1.1560234051116153875
1.155965697893024613
1.1558096864878253385
1.1555656969694789726
1.155275985384514259
1.1549981560947302217
1.1547846301454189888
1.1546680835599227866
1.1546548934039306822
1.1547283741471483509
1.1548608154563670958
1.1550231943581432681
1.1551907398681751094
1.1553427157410478543
1.1554590821412791257
1.1555206015347549986
1.1555133535198054417
1.1554358800472781521
1.1553025599878588014
1.1551420157472944705
1.1549864979654391739
1.1548658986220039502
1.1547954204894808061
1.1547782369521963908
1.1548016676969699024
1.1548499479935219192
1.1549037725190223203
1.1549449185681859298
1.1549613178589006601
1.1549418322679159132
1.1548814208743323206
1.1547790738546903633
1.1546419686762143808
1.1544849547813897939
1.1543256900126752651
1.1541812015821302229
1.1540654330867585742
1.1539826851823995479
1.1539305710225995494
1.1539030513557368973
1.1538960146642669446
1.153906179593078063
1.1539317051227580002
1.1539690032162599476
1.1540133208071587934
1.1540561642102664663
1.1540918392418137994
1.1541235048561213627
1.1541604312593500836
1.1542155863785823477
1.1542993400530536796
1.1544125180100586192
1.1545461990955860898
1.1546804888634940589
1.1547910975221020724
1.1548571200569577311
1.1548658939058609185
1.1548126181779503341
1.1547036127409899819
1.1545470039375320681
1.1543584502619490539
1.1541544800929757209
1.1539504899701551466
1.1537614508886393505
1.1535981175050853409
1.153464352544210314
1.1533556946762713036
1.1532580460818246948
1.1531523802231082865
1.1530203707581296868
1.1528544464185679352
1.1526618941772586169
1.1524663782660997668
1.152304446469364807
1.1522169624715075109
1.1522358147253093374
1.1523736837748754791
1.152617133844532793
1.1529253913840709078
1.1532444293058152773
1.1535190896088458601
1.153710300316391546
1.1538022331035255874
1.1538007475895366571
1.1537270425386840778
1.1536033732653547812
1.1534464055825393025
1.1532612959949377629
1.1530477806570678112
1.1528044603501912402
1.1525356699794939708
1.1522549868552316443
1.1519827346523299205
1.1517394522583457306
1.1515385031721800946
1.1513818981374512873
1.1512601655163194891
1.1511599130301950478
1.1510715922211944839
1.1509922486004930953
1.1509354759511181143
1.1509211926963489603
1.1509683290248526877
1.1510863688455001963
1.151268885668108588
1.1514915817222837191
1.1517174196221713345
1.1519074835442615345
1.1520320477535754833
1.1520770229701158271
1.152044577387317803
1.1519506706167801369
1.1518170612919038653
1.1516653205429145945
1.151511749132408946
1.1513676478699521599
1.1512396811653298201
1.1511304415930159184
1.1510395298950093501
1.1509648657495954449
1.1509025198113533861
1.1508463160105659728
1.150785610408873616
1.1507111193812911143
1.1506143281902410092
1.1504908345908155809
1.1503435769543302047
1.1501811707239033566
1.1500155405366285777
1.1498595397716360189
1.1497225969390172384
1.1496098541189039288
1.1495220346051449045
1.149454981758219807
1.1494029972249018012
1.1493601086475435658
1.149321305982738961
1.1492842051992544494
1.1492485644286363211
1.1492156271215805408
1.1491867958918615678
1.1491635403960647199
1.1491470688079234996
1.1491396140619207777
1.1491439246107697514
1.1491635629816323583
1.1492001719834847862
1.149252784558760343
1.1493166150188776076
1.1493811686420642992
1.1494339655157046476
1.1494626654672799315
1.1494604484938868438
1.1494268608278150889
1.1493689687713157799
1.1492988046899184074
1.1492305077905959898
1.1491746051375641979
1.1491337717378811156
1.1491036703363390892
1.1490733279821394586
1.1490299798233709616
1.1489619389609617706
1.1488644209554370601
1.1487406873492369552
1.1485999731469056506
1.1484563410656845051
1.1483259350007268829
1.14822470709800184
1.148163432784212068
1.1481486127788582685
1.1481814508664307528
1.1482577112102967387
1.1483704205706291024
1.1485099355333845406
1.1486665537649294322
1.1488284206750312144
1.1489855586690103095
1.1491262573151754811
1.1492396553697661332
1.1493166259193750012
1.1493488677925347563
1.1493330698459052197
1.1492695271751129926
1.1491641182129188614
1.1490266369593347129
1.1488702909297763277
1.1487076736505881236
1.1485506592193610587
1.148408348618936925
1.1482856392484339647
1.1481865254986465263
1.1481108486334714591
1.1480577388937416305
1.1480267028396018425
1.148015198037365181
1.1480180659035996715
1.1580361494161879321
1.1583160767130276092
1.1581951718355052439
1.1577607085606926862
1.1567325208009027193
1.1548485169290212404
1.1543490154124220748
1.1553553590412786178
1.1564374596825166552
1.1575433785835007594
1.1581014679513697008
1.1578654519684541402
1.1578731610110808425
1.1584014912246032303
1.1583739982950791436
1.1575833022112826942
1.1572593328916687128
1.1576877344907512413
1.1580506943621848848
1.1582126851930614198
1.1583377793885116791
1.1579876479274580081
1.1571152728982845304
1.1565402463873042382
1.1568402543628582002
1.1573560895155414752
1.1574140153567977762
1.1572475137926157007
1.1571865927479441094
1.1572729899938671849
1.1576660739796189592
1.1583919987342496949
1.1590418051810020827
1.1592860425210982367
1.1592547180293315545
1.1592216637605738949
1.1591230753480630256
1.158881811753664115
1.1585777183991148309
1.1582941433365707695
1.1580958708649944366
1.1581582430312105103
1.1585908928270853835
1.1593368708484317331
1.1600895378810067715
1.160508111318278468
1.160513067048255742
1.1603157444374365692
1.1601831373258837399
1.1602166707547085789
1.1603268337674417232
1.1604142340731944394
1.160518986822892451
1.1606477665014212075
1.1607726245932150633
1.1608507737517068659
1.1607810839656911295
1.1604431980938862967
1.1598502019829193266
1.1592704627461585254
1.1590437450398536345
1.1593248598142738004
1.1600033115331909173
1.1607366797636347044
1.1611585243501969522
1.1611669291966086881
1.160991493475566072
1.1609201178696668677
1.1610151812125533155
1.1611210923225072644
1.1610993398583171476
1.1610014238917014673
1.1609687695426884613
1.1610268969252013349
1.1610041777821646924
1.1607008456829697174
1.1601167024223317803
1.1595018657123949968
1.1591332356355246169
1.1591336785988095581
1.1594316013525407527
1.1598585932775791196
1.1602336794813801202
1.1603981326041850064
1.1603038527602422825
1.1600460188314891674
1.1598294547816223599
1.1597657291992098383
1.1598276638781204184
1.1599354259703067438
1.1600510180689600492
1.1601761826491605589
1.1602558817752859355
1.1601889910946721063
1.159929649933775897
1.1595640141540841661
1.1592492644888234832
1.1591134915666041483
1.1591841012326788984
1.1593838221102299446
1.1595898508419479889
1.1597173498557351579
1.1597816054972136524
1.1598734143808910879
1.1600494169074979656
1.1602523106974160783
1.1603551966233156545
1.1603408131327292985
1.160337824431504572
1.1604976594834137682
1.1608528889627198755
1.1612651489574399299
1.1615512506860161679
1.161625774062724048
1.1615315827781296232
1.1613360527410090395
1.1611040731980264429
1.1608713189969432911
1.1606529443818593972
1.16046766697852477
1.1603378208799779436
1.1602835605431669475
1.1603255036164035197
1.160432336967488709
1.1605331977873634131
1.1605461410762951679
1.1604684192834022749
1.1603900936213600303
1.1604259318784395649
1.1606501150535555311
1.1610257981906741964
1.1614070244064849113
1.1616296690136993508
1.1616054609217028037
1.1613801607197677956
1.1611043938448495361
1.1609321060669326453
1.1609081877486147061
1.1609506538629554839
1.1609102444179895119
1.1606881257155565734
1.1603153131553491928
1.1599140935723855073
1.1596068814036277761
1.1594475929505037026
1.1594446896077230669
1.159568516490935064
1.1597918278331069697
1.1600649052799567595
1.1603012854417891209
1.1604271148265024038
1.1604175369194169587
1.1603155844129968699
1.1601945494558414396
1.1601204600134971123
1.1601142893402256462
1.1601565540075258198
1.1602087571258070664
1.1602334932174955817
1.1602005582041508003
1.1601036045049659684
1.1599509039972768498
1.1597636660275454368
1.1595689692668180726
1.1593803967595193161
1.1592198415189129967
1.1590863016882499981
1.1589804860705703593
1.1589070587509409105
1.158876618161713612
1.1589117084294828786
1.1590322609107321927
1.1592389967489811209
1.1595050518472149736
1.159775268679419602
1.1599867096874745265
1.1600908624644745704
1.1600753480263641393
1.1599682306739120818
1.1598171609556451322
1.1596608827998042823
1.1595018143296558222
1.1593326237372347798
1.1591449967574707358
1.1589452160789657231
1.1587510404303644762
1.1585787375349343442
1.1584345244152427501
1.1583159476077853345
1.1578946114853365668
1.1578427593931459594
1.1577957704932184679
1.1577793740585149429
1.1578069357679456886
1.1578603889242862213
1.1578965647875136824
1.1578677902021321522
1.1577472592019550923
1.1575451044680065138
1.1573068143630349525
1.1570855726302320399
1.1569182337645025349
1.1568194329967609324
1.1567858564620578932
1.1568062094249662586
1.1568653235875709928
1.1569467238583235336
1.157034539943883944
1.1571144318739654544
1.1571693887846787874
1.1571946609375201032
1.1571893863003384073
1.1571576194317563235
1.1571098058468165526
1.1570630540127420094
1.1570413913644519432
1.1570722590201329982
1.1571653847127671977
1.1573076282013716742
1.1574537078221087683
1.1575450615184792458
1.1575251492406710696
1.1573683937381213926
1.1570918334029411945
1.1567487806804361838
1.1564079506121349716
1.1561289657131244013
1.1559462945521012944
1.1558648391723544968
1.1558680023956116045
1.1559288715373721157
1.1560229818936538226
1.1561344784423175369
1.1562518280298068607
1.1563642739796986536
1.1564576861566115973
1.1565177930625396563
1.1565281159300737635
1.1564800412891493853
1.1563760630844508448
1.1562325336671217535
1.1560806066703990247
1.1559587245972480218
1.1558996338807554505
1.1559188292493434158
1.1560020135253983309
1.1561070452877413306
1.1561753969566286315
1.1561518634476097844
1.1560066523046146347
1.1557474905170537216
1.1554189820481204354
1.1550870604532965658
1.1548162204965450872
1.1546516157511106382
1.1546085211860244168
1.154677031983255997
1.1548254941287043884
1.1550136203630403386
1.1552070510916394586
1.1553749307356684373
1.1554959435788627609
1.1555524495438167509
1.15554049102536327
1.1554623871144713565
1.1553342559478887441
1.1551766500534463855
1.1550119346243075125
1.1548621817784252563
1.1547478141502549587
1.1546799327437164973
1.1546631358346732821
1.1546910773147067708
1.1547497741047512143
1.154818854403477868
1.1548726749382323131
1.1548879134022167481
1.1548481566780752772
1.1547503536928958034
1.1546031190970895697
1.1544259173799000795
1.1542431152413021866
1.1540775360725838983
1.1539465995275814958
1.1538564538900442091
1.1538046575064870858
1.1537861588056876894
1.153795288116015838
1.1538275376443491993
1.1538785445110233407
1.1539428048263611348
1.154014720200742028
1.1540856290990297861
1.1541497271811862468
1.1542078228455063815
1.1542669839932686582
1.154337999744188048
1.1544290301295496715
1.1545401276738316287
1.1546611535039683627
1.1547722268691253955
1.154851574839333983
1.1548821257494898962
1.1548557383780633234
1.1547747786449589213
1.1546460477925153398
1.1544825569318055702
1.1543005635174465873
1.1541130115551769819
1.1539323446136293683
1.1537693808218210112
1.1536287099063198269
1.153511740789457507
1.1534128385051571897
1.1533179212436495131
1.1532093762192199282
1.1530739497995485809
1.1529068441718817173
1.1527189600285669968
1.1525352685561307542
1.1523911464867631071
1.1523229172361149075
1.1523561356589451243
1.1524980395006909628
1.1527308662639417225
1.1530156910125919367
1.1533030414273519604
1.1535467355332817974
1.1537166136731473731
1.1538011439585380558
1.1538064199639037621
1.1537475720822611969
1.1536399508129975278
1.153490888581881757
1.1533014428428198794
1.1530694969436190433
1.1527985875097803703
1.1525008652495976058
1.1521986306607150397
1.1519187169986377928
1.1516838365538273337
1.151503750198717535
1.1513737899674185705
1.1512781943963452669
1.1511955026738780461
1.1511083389903244978
1.1510192711462161608
1.1509417016247756038
1.1509020658111162039
1.1509253759027386899
1.151023127582094796
1.1511875320640918563
1.1513933520674379807
1.1516019250012501374
1.1517737773829315184
1.1518809287419133902
1.1519126526518574938
1.1518758123068946198
1.1517883258503971433
1.1516710805727510269
1.1515428851502786944
1.1514157078264457557
1.1512948440706736175
1.1511825634450238987
1.1510798433148348163
1.1509869470845002226
1.1509044962969410264
1.1508304580352952673
1.1507630199064560195
1.1506963717920739576
1.1506225004374079912
1.1505334125790414035
1.1504245883827315389
1.1502977919926509198
1.1501580824420458704
1.1500145825711254322
1.1498762185385513757
1.1497518643962589824
1.1496461644250934864
1.1495606273641074679
1.1494945433511420951
1.1494454016983477462
1.149410288857748208
1.1493852208103578771
1.1493657445781686466
1.1493474478210474743
1.1493266646335831282
1.1493000881537400737
1.149266616189515311
1.1492285545052198792
1.1491903141121833087
1.1491598146750729992
1.1491455414794242706
1.1491527476417224829
1.1491814322854991826
1.1492266809728577392
1.1492776909394188944
1.1493194570937312893
1.1493398433753927446
1.1493309767688035805
1.1492939358460985133
1.1492377107728404262
1.1491752819772937944
1.1491224246635334261
1.1490897413131444527
1.1490805285286733728
1.1490878856858941504
1.1490976860724613218
1.1490923340199048486
1.1490578343620674318
1.1489854092507147953
1.1488747050964456253
1.1487339359647108505
1.1485782535093129741
1.1484270549213659862
1.1482987197273422098
1.1482088537838701647
1.148167699423861432
1.1481794481859251
1.1482420165711946236
1.1483480352377983813
1.1484857253209213024
1.1486418599982912703
1.1488033812599223182
1.148957819491491561
1.1490941584224529937
1.1492011974690226062
1.1492702825332326011
1.1492960240848846265
1.1492750309990802382
1.1492098230938432302
1.1491063659959575016
1.1489755324271258008
1.148830135976950606
1.1486835686572041126
1.1485472058913523963
1.1484281250952841358
1.1483320353210961784
1.1482599282758825243
1.1482115192952979665
1.1481867714833000615
1.1481827904577730504
1.1481954516648276154
1.1482204742361485916
1.1585376052693714399
1.1595415889705502632
1.1584533498842086718
1.1571433281970675555
1.15568808814366486
1.1550954459342102076
1.1558532941421488793
1.1562855258432487293
1.156624430701336248
1.1579668053005391926
1.1590986597614565401
1.1588280993319683976
1.1581943134726817579
1.1582077021226286906
1.1582765733613593628
1.1579827375345275176
1.1581243365194728856
1.1586820110418560859
1.1587892432299118362
1.1584078174822489693
1.1582661575600152748
1.1582244003911879027
1.1576664177514415233
1.1571016579061632612
1.1573164458991520576
1.1578210324026541045
1.1577751979310662023
1.1573373159826885193
1.1570800651951558269
1.1572165383070172062
1.1577258064630380208
1.1585268176154690511
1.1592925971075260794
1.1597391274602171229
1.1598699754946260043
1.1597943951997686796
1.15952995837680084
1.1591622787206254941
1.1587738224819843502
1.1583962302503143516
1.1580993336169369545
1.1580639469032831812
1.1584433515134835435
1.159223717921441299
1.1600554322604939017
1.1605555906675155686
1.1606422627555335048
1.1604837144950812533
1.1602378415157059699
1.1599926201046979468
1.1598201295797336829
1.1598123476572905766
1.1599864768665684167
1.1602491352651926881
1.1604810082693495232
1.1606146848997123122
1.1606003111381182347
1.160363352343777299
1.1599188079724715994
1.1594682956791819706
1.1592731411009784548
1.1594967392291051222
1.1600931815724526697
1.1608155397131503239
1.1613058978898465057
1.1613626768379534671
1.161109835662067935
1.1608908613716877323
1.1609018206502732529
1.1610488116460975228
1.1611279334377742067
1.1610715285027579657
1.1609858872908414007
1.1609401299303385713
1.160879662431986592
1.1606940004015278145
1.1603498043092752567
1.1599723254326046451
1.1597293160866837258
1.159716788062556958
1.1599157558176111937
1.1602081850464218693
1.1604425361083985369
1.1605115365748133183
1.1603926409899738559
1.1601762447874253148
1.1599866742855162727
1.1599136551559228181
1.1599841805833492892
1.160154492780730795
1.1603536328364161268
1.1605217907438041269
1.1605758428512187308
1.1604925256208959983
1.1602839969177707324
1.160025969181349037
1.1598214384875764615
1.1597503587732986841
1.1598399267505676846
1.1600239308808786287
1.1601853734256064588
1.1602244058987307707
1.1601701100600070315
1.160149668552749036
1.1602640109148512071
1.1604608838652621383
1.1605952787508999613
1.160597615630647006
1.1605774283214491671
1.1607319487767784327
1.1611279528780018566
1.161626534391298593
1.1619675841961718543
1.1620185968218523787
1.1618026630859223935
1.1614569485830925633
1.1611290748933789096
1.1608999513946429705
1.1607829018090503048
1.1607490860921441111
1.1607484797937646093
1.1607656722567445406
1.1608102696999238468
1.1608824174725693723
1.1609291397614291963
1.160895311126550089
1.1607597832647027492
1.160603446256328386
1.1605466966404662799
1.1606628045678932803
1.1609327678728524891
1.1612474389365869953
1.1614718466455153933
1.1615203568594349992
1.1614097996585632799
1.1612543693097499009
1.1611584694298380249
1.1611585553924745895
1.161184660731234608
1.1611199492714723291
1.1608953098832384132
1.1605553589397565872
1.1602148218054606499
1.1599711499467966203
1.1598697824822143954
1.1598937936346880306
1.1600074921962983954
1.1601816141330050236
1.1603654981874922392
1.1604940120188500519
1.160524829870358765
1.1604426454943008729
1.1602867435843813304
1.1601242093943671119
1.1600129432591825829
1.1599823743101060902
1.1600339118143967454
1.1601340947698663975
1.1602251910612155772
1.1602355329307827425
1.1601265540507603724
1.1599153736293679184
1.1596561175028841095
1.1594110274605182731
1.1592190283904613146
1.1590855455901207804
1.1589804770503429054
1.1588858555117866889
1.1588003629035945607
1.15875379343736995
1.158793970825421793
1.1589602170143358251
1.1592536427473658645
1.1596186043914573638
1.1599516508484000177
1.1601507306842839817
1.1601609101502217136
1.1599976929227073796
1.1597388192247337635
1.159485008764716385
1.1592996715441925559
1.1591961247108295563
1.1591327398997859355
1.1590715208438588935
1.1589952458125751811
1.1588985829771434322
1.1587817011307897097
1.1586403930804378692
1.1584690566246149679
1.1582340236811941026
1.15816782496795323
1.1580674255545624352
1.1579707457573396034
1.1579110576579865199
1.1578980767911932759
1.1579061308447005096
1.1578861443307739698
1.1577980599501858094
1.1576352018803157673
1.1574238494489039741
1.1572093910136320716
1.1570368398080923544
1.1569338686038133091
1.1569116934974674749
1.1569600662871593055
1.1570548657236179313
1.157164021431851042
1.1572620196434246775
1.1573309988057116637
1.1573702767994900054
1.1573838727608463106
1.1573788331906507132
1.1573576568737258263
1.1573233580238491136
1.1572885700183850322
1.1572756710288201187
1.1573125646834225844
1.1574105037061495072
1.1575496952909296589
1.1576861233919653049
1.1577543378243315697
1.1577024072460109227
1.1575173172366102214
1.1572259592061981959
1.1568857652698949501
1.15656454485733029
1.1563154388604865996
1.1561620388807867243
1.156097882346303507
1.1561025247268568172
1.1561507956693777288
1.1562257278443306419
1.1563203249854627774
1.1564276556258108464
1.1565358113034462928
1.1566249724365182949
1.1566742741235398473
1.1566629506864214427
1.1565857410407447414
1.1564523536986481833
1.1562883307598137428
1.1561316880003791319
1.1560213897012894257
1.1559861487394311741
1.1560315457487080337
1.1561314482168982831
1.1562363964975561625
1.1562839760983760762
1.156221452338270117
1.1560280146554924308
1.1557224070473757216
1.1553589340741801106
1.1550100716462841088
1.1547430600301968884
1.1546032396971790401
1.1546015819226012056
1.1547162634179704011
1.1549074425070022798
1.155126331506147741
1.1553275421366058229
1.1554807315990858196
1.1555664837829724423
1.1555828047349345766
1.1555346362212597366
1.1554344317349449778
1.1552996631543219763
1.1551409641096588299
1.1549728603093423196
1.1548117120754748388
1.1546758942920598567
1.1545831759570039932
1.1545450877286926872
1.1545612930880067015
1.154619466558543639
1.1546937778794759133
1.1547527750108566025
1.1547669977944083897
1.1547206692337783629
1.1546132808326756702
1.1544611522029446515
1.154287821333776165
1.1541193996525207499
1.1539749874256441942
1.1538620877913936535
1.1537820965575573684
1.1537306440524022211
1.1537019309179208371
1.1536945031663903283
1.1537083091401720836
1.1537457529124830469
1.1538097810437815127
1.153898154786753727
1.1540059182179347452
1.1541248710909399744
1.1542483545250283861
1.1543747180765044913
1.1545034491338974636
1.1546302230284617441
1.1547467080027671305
1.1548376172662560002
1.1548887303780424052
1.1548865101536098798
1.1548280410709059751
1.1547187452384544137
1.1545730658543675862
1.1544091189229659378
1.1542429540926313347
1.1540873744896282815
1.1539518441734006871
1.1538375207106985609
1.1537404838170264298
1.1536565743579991761
1.1535795516567310948
1.1535002961562368373
1.1534084912737445627
1.1532935419042786851
1.1531500858403878063
1.1529812587796368639
1.1528023070273094586
1.15263987399761203
1.1525268569454347745
1.1524941583399443967
1.1525600602020835694
1.1527231522518130991
1.1529594584640576738
1.1532276877010858573
1.1534810251917870794
1.153678486021843419
1.1537954641320538052
1.153826922454381565
1.1537846021828566112
1.1536869294328075952
1.153550315971371143
1.1533822646883262752
1.1531854017014986358
1.1529573746750028107
1.1527009589279466617
1.1524277872344816931
1.1521569736589090116
1.1519096628897207424
1.1517008695683235153
1.1515350035494820169
1.1514057921101168436
1.1512979762990247501
1.1511918098463871374
1.1510796030722088013
1.150965705711563869
1.1508736180043044328
1.1508273825790340528
1.150851023719489552
1.1509536050994235712
1.1511219891481803135
1.1513254405834809635
1.1515234635139264263
1.1516778469822777087
1.1517636871843213164
1.1517744266350102844
1.1517221516016169502
1.1516288848717475268
1.15151765846510723
1.1514073252465484298
1.1513086682929314364
1.151222660975334211
1.1511448463287652366
1.151071542725504715
1.1509998758057908841
1.1509271212149607688
1.1508532068152543815
1.1507760021526165506
1.1506928199255048728
1.1505998459347908103
1.1504946203829706786
1.150376888773043893
1.1502476264654892812
1.1501129821778950379
1.1499806957570744004
1.1498590094020948449
1.1497528927222988582
1.1496647931199477366
1.1495950785103461467
1.1495423537153628413
1.1495053058727386919
1.1494811564411850924
1.1494668645496481929
1.1494584226339872313
1.1494495741645278652
1.1494340159550677782
1.1494067057811339083
1.1493651220745260133
1.1493113785028348239
1.1492519907009253188
1.1491957218989832246
1.1491523566178261095
1.1491294599253407682
1.1491288454327166502
1.1491457803740769972
1.1491713528160885094
1.1491921882914399866
1.1491974859324585179
1.1491809074053609407
1.1491446365329613943
1.149095568341603979
1.1490479807251392508
1.1490153459395837654
1.1490070972567008045
1.1490253980608393647
1.1490630874674216955
1.1491068236740886732
1.149137856471182717
1.1491394760787416729
1.1491001334577204407
1.1490161014334225875
1.1488936888561525063
1.1487463803999298229
1.1485923991558610879
1.1484520137548972496
1.1483435808913551313
1.1482806850189453129
1.1482696026072383155
1.1483111294642789346
1.1483985546840886904
1.1485202401128662419
1.148661585932909901
1.1488076557775137587
1.1489439517624333575
1.1490600791435108263
1.1491467820555485435
1.1491971535372773605
1.1492073333161612059
1.1491775776343104987
1.1491115906826401272
1.1490166615038963638
1.1489024456543606156
1.1487803469230493114
1.1486614407177004882
1.1485550053122415282
1.1484674472436198212
1.1484016163264221255
1.1483588991968174398
1.1483379332137961804
1.1483364619055389522
1.1483517157148366294
1.1483803649745771835
1.1484187258057452219
1.1484608218563459037
1.1565373374574472454
1.1557674138201459169
1.1576964394882882647
1.1579883462017037665
1.1560804975170053677
1.1551190239609727684
1.1555437348940011955