/*--------------------------------*- C++ -*----------------------------------*\
  =========                 |
  \\      /  F ield         | OpenFOAM: The Open Source CFD Toolbox
   \\    /   O peration     | Website:  https://openfoam.org
    \\  /    A nd           | Version:  12
     \\/     M anipulation  |
\*---------------------------------------------------------------------------*/
FoamFile
{
    format      ascii;
    class       volScalarField;
    location    "0.0145";
    object      T;
}
// * * * * * * * * * * * * * * * * * * * * * * * * * * * * * * * * * * * * * //

dimensions      [0 0 0 1 0 0 0];

internalField   nonuniform List<scalar> 
75962
(
299.71223683901462209
299.54953039791178071
299.81421690221770859
299.83283909043166204
299.98266898668373415
300.14739435809013912
300.18145037228424599
300.10694850534019906
299.912517432342554
299.68992850881221557
299.52900518355869508
299.50570370612172155
299.67174723684604487
299.8918380002229469
299.93712155585279788
299.77691891686708914
299.58139668171713765
299.4909704463431126
299.5316879798061791
299.68210381973221956
299.87877996389499913
299.99386998710912167
299.96159922780753959
299.84154737472493935
299.73207681392688073
299.63766126256791722
299.55278936388606326
299.51228534776464585
299.51637727985206539
299.53130758852006466
299.55111036009867576
299.57475400412073441
299.57662934093082185
299.53867943275554353
299.50414619655930437
299.52723468510043858
299.61196124620005321
299.72373387851644111
299.82126079282329556
299.88080981846968598
299.89228208872083314
299.87247030434730277
299.84073959153687383
299.80450555446566341
299.76242553419945125
299.70878548743701231
299.64798654925016308
299.60509612886926334
299.61484701472744518
299.68034440423872411
299.75595243711632065
299.79027521621475216
299.7739761778572074
299.73397098688462847
299.70500549529197087
299.71639306634028799
299.77179290783499255
299.83909097586212056
299.88018529509099608
299.87878374441407914
299.84734771488336946
299.80878033590579435
299.7754021029568321
299.74037916539316484
299.69648264958118489
299.6574395418219865
299.65175756478976155
299.68858346631259337
299.74427634009759913
299.77868512099911413
299.77131043410298616
299.7369906823254837
299.71011539317885308
299.71560136381395978
299.74619130482579976
299.77502554822649472
299.78142797254372454
299.76383979707821936
299.7293785054636146
299.68304373257069528
299.62834785337554422
299.57714444613884552
299.5425288264987671
299.52941685959513052
299.53531638298829876
299.55748332213528329
299.59560981208744579
299.63696090070874334
299.65390244486439997
299.62389761719038006
299.5509607248961288
299.46068704180015629
299.37602845037616817
299.30536608471675208
299.250081173155138
299.2148020031336273
299.20520128939620008
299.21934752637946531
299.24544356894188013
299.26979559351218541
299.28576423036219012
299.2948507601039978
299.30244486081221567
299.31306542453927477
299.32207150599691658
299.31512941510999326
299.27806497399478758
299.21329140138652747
299.13980140620247994
299.07932580625885066
299.04044914776386577
299.01544757971817035
298.99632139898142213
298.98084428837580617
298.97283300195755373
298.97161280350013612
298.96962270146696028
298.9567815860649489
298.92802992537514228
298.88661296525145872
298.84177502479832356
298.80351959811042661
298.77940019378047509
298.76734122447101072
298.75725862550643797
298.73637296275234121
298.69919899878709657
298.64980995288607346
298.59913321029102917
298.55950426565402722
298.53608857390514686
298.52445901390325389
298.5161481827597072
298.50534300820265798
298.49429757492413273
298.49072442028875685
298.50249645778734475
298.52767613894718579
298.55335137807367119
298.56305300666343783
298.54793444620003129
298.51291039999807708
298.4725442850874515
298.4408774098949948
298.42496356895924237
298.42433179826826972
298.43580783888472752
298.45531557332850525
298.47809637568559538
298.49633199658552485
298.50258827821670593
298.4945523598232171
298.47677418013284978
298.45894042144698233
298.44973571837914506
298.45379000713774076
298.47018484649987613
298.49603063078518517
298.5285219298929178
298.56554118143714049
298.60505828266053641
298.64347086923368124
298.67555256259009866
298.69721010218933088
298.70729442376307361
298.70771303944979991
298.7024467457836181
298.69478582284477852
298.68639580512115117
298.67673153049582879
298.66505314436346907
298.65099040750675385
298.63412705589496454
298.61621953347020053
298.60093757008519333
298.59301564963595865
298.59569286062344418
298.60991902513239893
298.63340731511215154
298.66125943837397472
298.6872284361995753
298.70591190847926555
298.71486885817841994
298.71605963132481065
298.71398391240103365
298.71477284571233213
298.72366115060680158
298.74255267759946264
299.1498003706470854
299.15678195625588387
299.16548085640602039
299.17996745511106838
299.20098134435744441
299.22659845094290176
299.25455944394332164
299.28395685014703531
299.3160612556768001
299.35290263620555606
299.39482340549454875
299.43901520022438945
299.47997253748553703
299.51175890961150117
299.53074434493521494
299.53704770866528406
299.53454600105129657
299.5290299321102907
299.52649209185466361
299.53163151250481633
299.54690848454941943
299.57199619529814072
299.60401188208788881
299.63804084880848677
299.66891646121098347
299.69304686850512098
299.70975234635955076
299.72088537277289788
299.73061046793594642
299.74250619393973238
299.75917522182589892
299.78224343153908649
299.81221315428172147
299.84931271306521694
299.89367999993390868
299.94436041872046417
299.99859690734950846
300.05173096919014597
300.0982281191369907
300.13328367770969862
300.15435834093528911
300.162504805748938
300.16207902411122177
300.15941708588667325
300.160839434291006
300.17032011920008472
300.188435283152387
300.21202493650048382
300.23565557849053675
300.25292143025097857
300.25915788354961933
300.25274628005570321
300.23571777064483967
300.21336437772157524
300.19231477386836104
300.17866891645087435
300.17581931822149954
300.18403948361486755
300.20125645724505148
300.22405673501987167
300.24923998788898416
300.27452721366779542
300.29807618213072828
300.31780938866353381
300.33125860349974801
300.3359369758790649
300.3302989682896964
300.31490524530585162
300.29280240443659977
300.26898823443002584
300.24902997569051877
300.23726313490959683
300.2356798912812792
300.24372841353925878
300.25909439761818476
300.27857380957965461
300.29888182530282847
300.31684765893646727
300.32994637515537306
300.33605321520821008
300.3342991468162495
300.32472302440095291
300.3092848532465382
300.29088481985746739
300.2730188454643212
300.25911577074646175
300.25128380173902087
300.25023214450015985
300.25502823022407028
300.26394127959088109
300.27513670474661467
300.28702611890332719
300.29868279408282206
300.31007533840323731
300.32158063735062115
300.33409236254209418
300.34895547494437551
300.36795878137428417
300.3924764279787496
300.42277742482281155
300.45721444047825344
300.49221663287033834
300.52237326525204253
300.54189665589223068
300.54639650086801339
300.5337466317629378
300.50475547994312819
300.46299859184802017
300.4139671594690526
300.36436076571771991
300.32080468298596543
300.28913558892435276
300.27384817145451734
300.27753580517691034
300.30014802540387109
300.339285505739781
300.38964859580698885
300.4447458023170725
300.49753607937964262
300.5417171013002644
300.57312579671366848
300.5901627782899368
300.59376540873086014
300.58691569132992072
300.57362819566884582
300.55819317165469329
300.54438137918452867
300.53523170767442707
300.53261233323530632
300.5370834716330819
300.54800607629726983
300.56368976510248103
300.58141592225416616
300.59782435813588108
300.60927474577516705
300.61239489415720527
300.60548920011711971
300.58911766086146145
300.56677492375058591
300.54426718284696562
300.52827464654797041
300.52465686592876182
300.53639995534751961
300.56281423378806039
300.59937741331185634
300.63927320057518955
300.67516517675846899
300.70136179600956439
300.71538908618163077
300.71845333809085332
300.71477724976870149
300.71021923879453652
300.71068879161185805
300.72068382642140705
300.74277013192471486
300.77730509703172856
300.82229157331738634
300.8746581808954943
300.930146571550722
300.98382907174999445
301.03067258864587075
301.06611745724802631
301.08662459415626245
301.09031200983758936
301.07761006298602524
301.05149569252137098
301.01703398336985629
300.9803273187051218
300.94737033399013626
300.92270818755662276
300.90874506656683707
300.90552415348321347
300.91141149764354168
300.92387537905938188
300.94031089200205997
300.95876411166511843
300.97843768001490616
300.99970421661282671
301.0237875386872588
301.05205997574324783
301.08589326159813027
301.12597587919248099
301.17206243399658661
301.22303597915134787
301.27680053616239775
301.33041917783702957
301.38048123311097015
301.42351650940179297
301.45662600566464562
301.47796451076823132
301.48690087101641666
301.48425745939113085
301.47204037849115821
301.45303418975021259
301.43039930482245836
301.40708991580197562
301.38543525147304081
301.36684401776534514
301.35182187049605318
301.34012219489329709
301.33115669366520706
301.3242700870397357
301.31908407931570082
301.31545614162808988
301.31353947847281916
301.31364719867275426
301.31595469358802575
301.32068472059421538
301.32806365031717633
301.33857410300566926
301.35279861121301792
301.37134325359920695
301.39451610976527718
301.42213991494099901
301.45314876257401693
301.48550433670857274
301.51658931914460027
301.54348327001395091
301.56365568783780873
301.57526714498874298
301.57767965891116546
301.5713780940341735
301.5575756067146358
301.5379674389244542
301.51441703119797921
301.48874029525251217
301.46226189759670433
301.43602802349300873
301.4107538697364248
301.38687457133551106
301.36480828641180096
301.34495442752114513
301.32790711165756647
301.31420731567044413
301.30464459413400391
301.29972501678520302
301.29978631781989407
301.30484998033659849
301.31438037341075642
301.32765023689387363
301.34357727522410642
301.36104723393572158
301.37890895648348533
301.39611672771434314
301.41160958772070444
301.42445560934504556
301.43394243842357128
301.43953032237880052
301.4412890383590593
301.43956566880763148
301.43518862110164491
301.42946201245621296
301.42364975349954648
301.41869769712633342
299.93894919179962244
299.97266889707998416
299.98382549689961252
299.98828028551412217
299.9735035749255303
299.89027470053844127
299.89359311708636824
299.915020902734625
299.80158696890714509
299.65913394587948915
299.57415878897666062
299.58484976119444809
299.74713485833535742
299.96650932077062635
300.01759632087907903
299.84688624563750636
299.64847648656194679
299.56255861923233397
299.58336973702284922
299.70576877643441094
299.89095382090130215
300.00134586659197566
299.95562624228364257
299.82290039237966539
299.71230758081406975
299.62728772018920154
299.54516818281649648
299.49725355662747006
299.49625165178571251
299.51762944775134656
299.55914289889125257
299.61680376292952133
299.64847056121425339
299.62805588616822661
299.58983628268259736
299.59100489020062241
299.64121821464721052
299.72135700023403615
299.80440972954761492
299.85787842247873414
299.86147629270061543
299.83157290815256601
299.79708292527965341
299.77585813205422482
299.75711375201922237
299.72171615730076155
299.67481362326725502
299.64711945533707649
299.66427563767581432
299.71884840426986329
299.77127069964700468
299.78352002810976273
299.75240828586703401
299.69948616745210757
299.66188696417037818
299.67267876834762319
299.73438081794319032
299.8134977537110899
299.86636261004963444
299.87513130727563748
299.85063627640550976
299.81350441678210927
299.77988436841525299
299.75130118283021829
299.72127565933749338
299.69545334209414023
299.69581380519878167
299.734996893162986
299.7936283211384989
299.83081632079978363
299.81938186572369887
299.77063839487578889
299.72226413515915056
299.7060684487207709
299.72454622208806541
299.75666760912378095
299.78025449490525034
299.78718568575965264
299.77517029713874308
299.74228388214879715
299.68897593275357849
299.62529126164815807
299.56919796519099464
299.5355677537398833
299.53277929148578096
299.56143723693270431
299.61567507310633118
299.67312991142495093
299.70252054629958138
299.68202212197769541
299.61342909714022653
299.51944022393735167
299.42441114646749156
299.343984111528016
299.28607555235919335
299.25573692758081279
299.25290439357229388
299.27057584025362758
299.29636187676584314
299.31726360095939299
299.3250869532673164
299.32028291966105371
299.31211204363472689
299.31201778472711794
299.32160295727732091
299.32666452119258338
299.3057984108384062
299.25318087382675003
299.18472035870655645
299.12453930941933322
299.08727385783208774
299.0683855341923163
299.05470825498957765
299.03812644370572116
299.02002340139245007
299.00170057607942908
298.98304615063733536
298.9614031591066805
298.93371869971872457
298.90000525056376546
298.86367166109988602
298.83032556887718556
298.80622309998273067
298.79086414105597669
298.77653944336339009
298.75117787173320494
298.70926160784648573
298.65614310652256336
298.60347987152408678
298.56359438967126607
298.54119157727018319
298.53098176483484849
298.52382902686235866
298.51389673451541285
298.50401680975346608
298.50350522295684641
298.52021416122585151
298.55098496549379661
298.58179380375514711
298.59456215095002563
298.5792012148542085
298.54115597944257843
298.49636212598460361
298.46046738858382241
298.44099633700420782
298.4393000258766051
298.45176913121866846
298.47440759734234916
298.50086530129982521
298.52116775332660836
298.52690404350158815
298.51556622088821769
298.49270919045875416
298.46819870717592948
298.45206070491315131
298.44998733501068955
298.46312781543127812
298.48946311096841555
298.52528112685524775
298.56538929649076408
298.60510075057891299
298.64002115664135317
298.66712993993007785
298.68507931545894962
298.69311524891071485
298.6933975523605227
298.68733959859724791
298.67713972603939965
298.66506573821266102
298.65283842766081079
298.64233796966459522
298.63487822842893138
298.63067156364240873
298.62894532964804739
298.62821708087761863
298.62760599929282535
298.62756040777600219
298.63024403760493897
298.63870248479054226
298.65437053521407051
298.67522388541874534
298.69485179636353678
298.70763194297393284
298.71120721186338187
298.70852812822130318
298.70625010151934475
298.71097257429960337
298.72581686395818679
298.74889396415204601
299.18091908633664389
299.19599089299151728
299.20545837257941457
299.21363154244539828
299.22491046861858877
299.2410260029353708
299.26101127806077784
299.28277402878097746
299.30517859574905515
299.32928319103166359
299.3578864589704267
299.39257691261781247
299.43161803379689445
299.47024975486993981
299.50258516668321818
299.52419539621786271
299.53367529949105119
299.53322244267923224
299.52815729479880247
299.52533850369746915
299.5306007037999052
299.5481894785278314
299.57861668320282433
299.6184673381230823
299.66162720396704344
299.70128508482565621
299.73243438178349152
299.75368162801936478
299.76632169409276685
299.77385995569073884
299.77980176777055021
299.78762286202766063
299.79993388264307441
299.81942719279038556
299.84871396213787875
299.88931300296809468
299.94029027709592583
299.99746297770968795
300.05404358975107471
300.10253842153633741
300.13730280139020579
300.15635247978480038
300.16217974988416017
300.16088135564712047
300.15973331942859659
300.16484382008530929
300.17922615967233924
300.20236601772535323
300.23013331906253143
300.25662689101562819
300.27584097893372928
300.28346781955269762
300.27836242677716427
300.26282454578995385
300.24172238360387155
300.22106139649929446
300.2058560279407402
300.19896028563493928
300.20069483402960486
300.20940975243684079
300.2228118052555601
300.23892986146705653
300.25654212235843943
300.27471441444583888
300.29201612757367457
300.30629686697704983
300.31492555540972944
300.31606257886323874
300.30900188035576548
300.29499121015726359
300.27753725082448
300.26084477034049769
300.24910225194958002
300.2448170234942495
300.24919133212915767
300.26116928689060614
300.27859291154209131
300.2980302130216046
300.31554683988326815
300.3276698583426878
300.33227639735508774
300.32850200588967482
300.31740402095698528
300.30130114188222024
300.28358702235988176
300.26779452357465061
300.25663124101816948
300.25157930967367292
300.25268883408881493
300.25894410509476984
300.26843559201023481
300.27900719549279529
300.28872959065006398
300.29630366986151557
300.30150604472214582
300.30503021822266874
300.3086500048424341
300.31521840290076852
300.32787966227431298
300.34911488957186521
300.37970894172082126
300.41800142371317861
300.45985165055515154
300.49895936614893799
300.52863507865674819
300.54354995412165863
300.54090445651718255
300.52099521739802412
300.48681019656982016
300.44327732820465826
300.39644562235349667
300.3526231382942342
300.31803058162694242
300.29809874674322145
300.29665950961668841
300.31512234232673109
300.35149664191050078
300.40093689630253948
300.45653563497961613
300.51020968812946421
300.55472801445534969
300.58510930006650597
300.59915861141411142
300.5980828233016382
300.58560570686006486
300.56671838189532764
300.54666921025739157
300.53022684587307367
300.52081591099459956
300.52049305093316889
300.52963560887621952
300.54716007626143437
300.57059401700746548
300.59624312352417519
300.61973764783851948
300.6364042601698543
300.64226993792442499
300.63525356776176523
300.61622064661565901
300.58946440277861711
300.56178943091936162
300.54104554111631842
300.53383924543254579
300.54363511819178711
300.56942287636167066
300.60619036582909303
300.64623836251149669
300.681621648302837
300.70619412167519613
300.71735437790272272
300.71644637337044514
300.70804086367866148
300.69837285069087329
300.69383285688928709
300.69956578138283021
300.71830437147752946
300.75025045275509683
300.794221267752107
300.8469914959270568
300.90449172962121338
300.96179660977878711
301.01335884305717627
301.05371641381077552
301.07849948456458833
301.08506961913059286
301.07344688965531532
301.04676194319205251
301.01075483850530645
300.97264414721252024
300.93945308726262056
300.91647660615376481
300.90644725490250266
300.90918627847128164
300.92215343022826346
300.94167047232053847
300.96404262088435644
300.98649958178543784
301.00785791767185628
301.02834749128788872
301.04970456189744255
301.0740459874031103
301.10337678610306966
301.13890566332844401
301.18082093326114546
301.22826182053722732
301.27905128133375001
301.33019430947018691
301.37813224244212051
301.41946655857810811
301.45124140359632747
301.47155948665880487
301.47995911942700786
301.47739986657808231
301.46609718206508433
301.44896415634343612
301.42906740401826937
301.40912130597661189
301.39111989570301375
301.37603623396728381
301.36398951228369469
301.35455371398194302
301.3469743974600874
301.34073667961615683
301.33565084227444686
301.33176517107210657
301.32931260635382387
301.32870690830844751
301.3302336352641646
301.33394453699992255
301.34001964793543493
301.34859968690415144
301.36009199408772474
301.374998028767493
301.39358357517619424
301.41600854467725412
301.44172005849844709
301.46949364112464309
301.49733346558849689
301.52283470174086233
301.54363878308078029
301.55799438442636529
301.56482569653087467
301.56392974408140617
301.55589697526301052
301.54191805573736929
301.52352241329157323
301.50216451451854027
301.47920103287208349
301.45575935818959579
301.43277992268730259
301.41104411792241535
301.39122234600324646
301.37385944829310347
301.35952928909148341
301.34881314355732229
301.34219877708227386
301.34005534689788419
301.34233331038711867
301.34878470880221357
301.35890395781626694
301.37178155778656219
301.38646296399883795
301.40180676846767938
301.41675366674382985
301.43031251597358278
301.44160984939315995
301.44996341199578183
301.45477031478912977
301.45598803705780711
301.45377314532902346
301.44874774618972424
301.4420587016384161
301.43486908678846703
301.42828062268375788
301.42332176693861356
300.04251009194859989
300.08939371862044254
299.98254021110955136
299.88777188561539333
299.84071824627892511
299.91893117714573691
300.07154533119000916
300.0279225927726543
299.81909437964992549
299.69210292817166419
299.67455865663526993
299.70295172041079468
299.82059258044881744
299.99413024187163046
300.0414415671137931
299.89268144316253029
299.7146897815133002
299.63207280473096716
299.63799779678436153
299.72640210967250596
299.90074634215773131
300.04705396882354762
300.02465438406255771
299.87652975127701893
299.74328989022183123
299.65389636868508205
299.56884549346290214
299.50654265591055037
299.49890633580099575
299.53525177615046005
299.59123610668189031
299.65066393210668139
299.68310516994756654
299.67328866824095712
299.6475099847839374
299.64569147761204704
299.68226143889523883
299.75077273624822283
299.82196030987375934
299.85913771037218112
299.84673421591321585
299.80575997048231329
299.77000966929580272
299.75900724486706395
299.75371001725699216
299.72956301008667879
299.69373728074515384
299.67590104622814806
299.68999315208691314
299.72222367038648372
299.74424957257559754
299.73626651342937066
299.69636871484391349
299.64331980044238435
299.61191118054011895
299.63459710540070091
299.71451131656186817
299.81437961760218514
299.88400816495374102
299.89770865931672006
299.86248551406725937
299.80688449558124375
299.75988358735770589
299.73552325697346532
299.72667743094820025
299.7235889979873491
299.73097721472760213
299.76274922222387431
299.81253371229689719
299.84827116798010138
299.83948513296661531
299.78821505855711393
299.73066915634205998
299.70382474255922034
299.72092309517802278
299.76719116218112049
299.81374716649560241
299.83754954796950187
299.82626657831855255
299.77910637216808709
299.70694940141390816
299.62892427564923992
299.56689494223962811
299.53853839323045349
299.54981274294311788
299.59479073833773555
299.65419829126807372
299.70186388749135631
299.71553529847750497
299.68454089234802495
299.61486915297422229
299.52674979839190428
299.44020767259314653
299.37340618920734414
299.3331367406777872
299.317561565867436
299.31894846617393569
299.32789393598778815
299.33774568905653268
299.34282910870331307
299.33941792447370744
299.32638044198250782
299.31144070956389669
299.30578956183273931
299.31305911814826004
299.31945543612442862
299.30370655007112646
299.2572259194219555
299.19538285819544399
299.14629719654527662
299.12577724109274868
299.12657964066841032
299.12550569580309912
299.10872111158442976
299.0753812443674633
299.0341792542251369
298.99420494096017364
298.95849803676355805
298.92554127100800088
298.89264972024471945
298.85791630506139427
298.82464958254411158
298.79846604495168094
298.78172796149857504
298.76742028503002757
298.7449880356194285
298.70622413449819987
298.65525224315649666
298.60449405748011031
298.56596521845409598
298.54516369931639019
298.53899441841787166
298.53968010296796365
298.54047717528754902
298.54076091041400787
298.54643681485219986
298.56115710331226865
298.58241959926186837
298.59930845382382358
298.5989534886302863
298.57585422771313688
298.53759732800710935
298.49908651411902838
298.47247281113328654
298.46299329642056364
298.46825467666303666
298.48325948051063961
298.50410379828883833
298.52502366210262608
298.53889806533908313
298.54099394723243677
298.52928725773983842
298.50789266747682404
298.48467166186458144
298.46780363218874754
298.46346240542948181
298.47526922189615561
298.50250330206938543
298.54014216964674233
298.57917561101112369
298.6116721295327352
298.63413219634259121
298.64704208952468889
298.65316852059004304
298.65505093424428651
298.65393152613052052
298.64867082519918995
298.63962072753201937
298.6279861514390177
298.61673372372280255
298.60969860755670879
298.60983189371791013
298.61767277496352335
298.63033849164673939
298.64219720998261209
298.64862706348498023
298.64871254649983712
298.64584328327532603
298.64613363515724132
298.6547790427970881
298.67154969662027497
298.6915434168217871
298.7069033310336863
298.71402722134621399
298.71537919304040543
298.71675616716578361
298.72384447536296648
298.73853599790021462
298.75768534829751388
299.21566748989044981
299.23452332637771178
299.24340535435840138
299.24624616346864059
299.24818335264069447
299.25326941209118559
299.26280503943678468
299.27588458999406384
299.29194761727745799
299.31231895304250656
299.33925771379750813
299.37409498887308246
299.41553488966542318
299.45916688787082194
299.49938597321761335
299.53072794345865759
299.54999506971620349
299.55711074749643785
299.55594002392905395
299.55271367776379066
299.55498627522018751
299.56820454976696055
299.59410197518906216
299.62955092806373614
299.66798204236243919
299.70250041765660853
299.72849217734881222
299.74544945678297836
299.75583426657215114
299.76338896718249316
299.77227112425947553
299.78523639568493309
299.80463263515503058
299.83301113587964437
299.87196443195455231
299.92118762777147367
299.97774289433129979
300.03580395554666893
300.08783140426135105
300.12685484172828865
300.14942762976176027
300.15650146741734261
300.15358320663943914
300.14889793692810827
300.15023566906654651
300.16254478101916447
300.18643992433243284
300.21860992231211185
300.25247070524028459
300.28097266674262755
300.29818823592643184
300.30103442789373958
300.29030921290836886
300.27020038943965119
300.24712318712784054
300.22766403670976842
300.21645916885188399
300.21556383355033404
300.22389105557857647
300.23828891257642226
300.2550933113618612
300.27108068274674224
300.28411257594092376
300.29305025341614055
300.29728828247658612
300.29663678759681034
300.29094186793832932
300.28034100913930615
300.26610017400162178
300.25033325536952589
300.23599401922223251
300.22661042698996425
300.22484207070169759
300.23234868421042165
300.24857622729427931
300.27103306844708186
300.29582392428778803
300.3175589414883575
300.3316543364301765
300.33528522693177365
300.32823689381029908
300.31286854079871773
300.2933053818121607
300.27413073112620623
300.25937167787770932
300.25125382385999728
300.25010422957791434
300.25448398076127887
300.26220802973415402
300.27077432572400539
300.27818186329534456
300.28290294105931935
300.28438100612623884
300.28283158269891828
300.27919420338611189
300.27561685954003678
300.27496648562095061
300.28043692166761502
300.29508985177960767
300.3206280816917797
300.35682212458664253
300.40107647272037639
300.44817896571879601
300.49142940139358871
300.52376605007549415
300.53965934505873747
300.53672568830944556
300.51606648875298333
300.48172450811546241
300.43982742585819778
300.39703735628523873
300.3599671476038111
300.33393546467556234
300.32308996114670663
300.32951814652204803
300.35311659087716407
300.39111842690260801
300.43821619831606995
300.48752404728026022
300.53211385440499726
300.56595333272275639
300.58533521650315379
300.58985278036919908
300.58198992944397787
300.56617775202977327
300.5476989686029583
300.53142181810801503
300.52113430908252667
300.51900214517223731
300.52559320964758172
300.54004483883028342
300.56027689718240481
300.58326755946848152
300.60530796206683135
300.62254594503696126
300.63156315722574163
300.63022936833090171
300.61858509134532369
300.59914630942222402
300.57675684624291534
300.55762084768559816
300.54788439773216169
300.55174436197364685
300.57012661501619277
300.60010551278946878
300.63595442190364793
300.67027725864681997
300.69651705648783491
300.71079066948027503
300.71283308792101252
300.70586196269215407
300.69532458075838122
300.68736773091586656
300.68739049189446177
300.69870572287538835
300.72194890266064249
300.75620121357673042
300.79899767596373295
300.84770670966094031
300.89853597138386476
300.94760733300637412
300.99054366716319464
301.02267376350908989
301.04017305811890992
301.0410871975203122
301.02619575963251464
300.99927438628219534
300.96641113542386847
300.93479659128581716
300.91082946328242542
300.89863855375699586
300.89952662842119935
300.91202903107631528
300.93252152573768399
300.95661774839504687
300.98072322254949995
301.00268696221326081
301.02209721691110644
301.04041060365426574
301.05995821151230984
301.08337570516005144
301.11267036875483427
301.14882670612701077
301.19147416941268602
301.238766516275291
301.28810981338313013
301.33634615748627539
301.38027874115994109
301.41689638083471436
301.4439159960201664
301.46011031274201741
301.46543051662627022
301.46114811453463744
301.44945264285018993
301.43319830638233725
301.41535576633594928
301.39837442336073536
301.38393828827736343
301.37280880559870866
301.36488546771033725
301.35955979408907979
301.35600791940970566
301.35342493998376767
301.35133510672460488
301.34958466153625523
301.34817788243134373
301.34721602702580867
301.34695881119063188
301.34750343800874361
301.34920688110645415
301.35255334165520935
301.35840123509944988
301.36746959109649424
301.3806872353341646
301.39844187117245156
301.42046395136901538
301.44569123097238617
301.47220906503366677
301.49773418738874398
301.51970462018596209
301.536061735485589
301.54544213789148444
301.54735974360869477
301.54230814005507
301.53135716785686782
301.51591917510120311
301.49751555725566732
301.47755269763939623
301.457185962159258
301.43725770713319889
301.41861073607731214
301.40187740257266569
301.38766034096175872
301.3765498419984965
301.36912118570677421
301.36578831419200242
301.36694436860358337
301.37246929982484289
301.38182047241883765
301.39410104226550402
301.4082163570794819
301.42293378218107591
301.43703370851898171
301.44942079624212283
301.45922512009798311
301.46584977691912854
301.46894633872466329
301.46846941416436039
301.46461143029762297
301.45801315513506324
301.4495576587571577
301.44036912217364943
301.43168709192184451
301.42466407487586366
301.4202237384338332
301.41870519989066679
299.97916574325626016
299.71159233669180821
299.87967422101291959
299.97272660086093765
299.89306684389543989
299.91575168453442757
300.01208868740792468
299.94293395846347039